V -t * -v 1.0a5 -a 0
A -t * -n 1 -p 0 -o 0x7fffffff -c 30 -a 1
A -t * -h 1 -m 1073741823 -s 0
c -t * -i 4 -n green
c -t * -i 5 -n black
c -t * -i 1 -n darkmagenta
c -t * -i 2 -n yellow
c -t * -i 3 -n blue
n -t * -a 0 -s 0 -S UP -v hexagon -c black -i black
n -t * -a 1 -s 1 -S UP -v hexagon -c black -i black
n -t * -a 2 -s 2 -S UP -v hexagon -c black -i black
l -t * -s 0 -d 1 -S UP -r 2200000 -D 0.01 -c black -o right
l -t * -s 1 -d 2 -S UP -r 1100000 -D 0.01 -c black -o right-down
n -t 0 -s 0 -S DLABEL -l "Node0" -L ""
n -t 0 -s 1 -S DLABEL -l "Node1" -L ""
n -t 0 -s 2 -S DLABEL -l "Node2" -L ""
+ -t 0.2 -s 0 -d 1 -p cbr -e 500 -c 4 -i 0 -a 4 -x {0.0 2.0 0 ------- null}
- -t 0.2 -s 0 -d 1 -p cbr -e 500 -c 4 -i 0 -a 4 -x {0.0 2.0 0 ------- null}
h -t 0.2 -s 0 -d 1 -p cbr -e 500 -c 4 -i 0 -a 4 -x {0.0 2.0 -1 ------- null}
+ -t 0.205 -s 0 -d 1 -p cbr -e 500 -c 4 -i 1 -a 4 -x {0.0 2.0 1 ------- null}
- -t 0.205 -s 0 -d 1 -p cbr -e 500 -c 4 -i 1 -a 4 -x {0.0 2.0 1 ------- null}
h -t 0.205 -s 0 -d 1 -p cbr -e 500 -c 4 -i 1 -a 4 -x {0.0 2.0 -1 ------- null}
+ -t 0.21 -s 0 -d 1 -p cbr -e 500 -c 4 -i 2 -a 4 -x {0.0 2.0 2 ------- null}
- -t 0.21 -s 0 -d 1 -p cbr -e 500 -c 4 -i 2 -a 4 -x {0.0 2.0 2 ------- null}
h -t 0.21 -s 0 -d 1 -p cbr -e 500 -c 4 -i 2 -a 4 -x {0.0 2.0 -1 ------- null}
r -t 0.211818181818182 -s 0 -d 1 -p cbr -e 500 -c 4 -i 0 -a 4 -x {0.0 2.0 0 ------- null}
+ -t 0.211818181818182 -s 1 -d 2 -p cbr -e 500 -c 4 -i 0 -a 4 -x {0.0 2.0 0 ------- null}
- -t 0.211818181818182 -s 1 -d 2 -p cbr -e 500 -c 4 -i 0 -a 4 -x {0.0 2.0 0 ------- null}
h -t 0.211818181818182 -s 1 -d 2 -p cbr -e 500 -c 4 -i 0 -a 4 -x {0.0 2.0 -1 ------- null}
+ -t 0.215 -s 0 -d 1 -p cbr -e 500 -c 4 -i 3 -a 4 -x {0.0 2.0 3 ------- null}
- -t 0.215 -s 0 -d 1 -p cbr -e 500 -c 4 -i 3 -a 4 -x {0.0 2.0 3 ------- null}
h -t 0.215 -s 0 -d 1 -p cbr -e 500 -c 4 -i 3 -a 4 -x {0.0 2.0 -1 ------- null}
r -t 0.216818181818182 -s 0 -d 1 -p cbr -e 500 -c 4 -i 1 -a 4 -x {0.0 2.0 1 ------- null}
+ -t 0.216818181818182 -s 1 -d 2 -p cbr -e 500 -c 4 -i 1 -a 4 -x {0.0 2.0 1 ------- null}
- -t 0.216818181818182 -s 1 -d 2 -p cbr -e 500 -c 4 -i 1 -a 4 -x {0.0 2.0 1 ------- null}
h -t 0.216818181818182 -s 1 -d 2 -p cbr -e 500 -c 4 -i 1 -a 4 -x {0.0 2.0 -1 ------- null}
+ -t 0.22 -s 0 -d 1 -p cbr -e 500 -c 4 -i 4 -a 4 -x {0.0 2.0 4 ------- null}
- -t 0.22 -s 0 -d 1 -p cbr -e 500 -c 4 -i 4 -a 4 -x {0.0 2.0 4 ------- null}
h -t 0.22 -s 0 -d 1 -p cbr -e 500 -c 4 -i 4 -a 4 -x {0.0 2.0 -1 ------- null}
r -t 0.221818181818182 -s 0 -d 1 -p cbr -e 500 -c 4 -i 2 -a 4 -x {0.0 2.0 2 ------- null}
+ -t 0.221818181818182 -s 1 -d 2 -p cbr -e 500 -c 4 -i 2 -a 4 -x {0.0 2.0 2 ------- null}
- -t 0.221818181818182 -s 1 -d 2 -p cbr -e 500 -c 4 -i 2 -a 4 -x {0.0 2.0 2 ------- null}
h -t 0.221818181818182 -s 1 -d 2 -p cbr -e 500 -c 4 -i 2 -a 4 -x {0.0 2.0 -1 ------- null}
+ -t 0.225 -s 0 -d 1 -p cbr -e 500 -c 4 -i 5 -a 4 -x {0.0 2.0 5 ------- null}
- -t 0.225 -s 0 -d 1 -p cbr -e 500 -c 4 -i 5 -a 4 -x {0.0 2.0 5 ------- null}
h -t 0.225 -s 0 -d 1 -p cbr -e 500 -c 4 -i 5 -a 4 -x {0.0 2.0 -1 ------- null}
r -t 0.225454545454545 -s 1 -d 2 -p cbr -e 500 -c 4 -i 0 -a 4 -x {0.0 2.0 0 ------- null}
r -t 0.226818181818182 -s 0 -d 1 -p cbr -e 500 -c 4 -i 3 -a 4 -x {0.0 2.0 3 ------- null}
+ -t 0.226818181818182 -s 1 -d 2 -p cbr -e 500 -c 4 -i 3 -a 4 -x {0.0 2.0 3 ------- null}
- -t 0.226818181818182 -s 1 -d 2 -p cbr -e 500 -c 4 -i 3 -a 4 -x {0.0 2.0 3 ------- null}
h -t 0.226818181818182 -s 1 -d 2 -p cbr -e 500 -c 4 -i 3 -a 4 -x {0.0 2.0 -1 ------- null}
+ -t 0.23 -s 0 -d 1 -p cbr -e 500 -c 4 -i 6 -a 4 -x {0.0 2.0 6 ------- null}
- -t 0.23 -s 0 -d 1 -p cbr -e 500 -c 4 -i 6 -a 4 -x {0.0 2.0 6 ------- null}
h -t 0.23 -s 0 -d 1 -p cbr -e 500 -c 4 -i 6 -a 4 -x {0.0 2.0 -1 ------- null}
r -t 0.230454545454545 -s 1 -d 2 -p cbr -e 500 -c 4 -i 1 -a 4 -x {0.0 2.0 1 ------- null}
r -t 0.231818181818182 -s 0 -d 1 -p cbr -e 500 -c 4 -i 4 -a 4 -x {0.0 2.0 4 ------- null}
+ -t 0.231818181818182 -s 1 -d 2 -p cbr -e 500 -c 4 -i 4 -a 4 -x {0.0 2.0 4 ------- null}
- -t 0.231818181818182 -s 1 -d 2 -p cbr -e 500 -c 4 -i 4 -a 4 -x {0.0 2.0 4 ------- null}
h -t 0.231818181818182 -s 1 -d 2 -p cbr -e 500 -c 4 -i 4 -a 4 -x {0.0 2.0 -1 ------- null}
+ -t 0.235 -s 0 -d 1 -p cbr -e 500 -c 4 -i 7 -a 4 -x {0.0 2.0 7 ------- null}
- -t 0.235 -s 0 -d 1 -p cbr -e 500 -c 4 -i 7 -a 4 -x {0.0 2.0 7 ------- null}
h -t 0.235 -s 0 -d 1 -p cbr -e 500 -c 4 -i 7 -a 4 -x {0.0 2.0 -1 ------- null}
r -t 0.235454545454545 -s 1 -d 2 -p cbr -e 500 -c 4 -i 2 -a 4 -x {0.0 2.0 2 ------- null}
r -t 0.236818181818182 -s 0 -d 1 -p cbr -e 500 -c 4 -i 5 -a 4 -x {0.0 2.0 5 ------- null}
+ -t 0.236818181818182 -s 1 -d 2 -p cbr -e 500 -c 4 -i 5 -a 4 -x {0.0 2.0 5 ------- null}
- -t 0.236818181818182 -s 1 -d 2 -p cbr -e 500 -c 4 -i 5 -a 4 -x {0.0 2.0 5 ------- null}
h -t 0.236818181818182 -s 1 -d 2 -p cbr -e 500 -c 4 -i 5 -a 4 -x {0.0 2.0 -1 ------- null}
+ -t 0.24 -s 0 -d 1 -p cbr -e 500 -c 4 -i 8 -a 4 -x {0.0 2.0 8 ------- null}
- -t 0.24 -s 0 -d 1 -p cbr -e 500 -c 4 -i 8 -a 4 -x {0.0 2.0 8 ------- null}
h -t 0.24 -s 0 -d 1 -p cbr -e 500 -c 4 -i 8 -a 4 -x {0.0 2.0 -1 ------- null}
r -t 0.240454545454545 -s 1 -d 2 -p cbr -e 500 -c 4 -i 3 -a 4 -x {0.0 2.0 3 ------- null}
r -t 0.241818181818182 -s 0 -d 1 -p cbr -e 500 -c 4 -i 6 -a 4 -x {0.0 2.0 6 ------- null}
+ -t 0.241818181818182 -s 1 -d 2 -p cbr -e 500 -c 4 -i 6 -a 4 -x {0.0 2.0 6 ------- null}
- -t 0.241818181818182 -s 1 -d 2 -p cbr -e 500 -c 4 -i 6 -a 4 -x {0.0 2.0 6 ------- null}
h -t 0.241818181818182 -s 1 -d 2 -p cbr -e 500 -c 4 -i 6 -a 4 -x {0.0 2.0 -1 ------- null}
+ -t 0.245 -s 0 -d 1 -p cbr -e 500 -c 4 -i 9 -a 4 -x {0.0 2.0 9 ------- null}
- -t 0.245 -s 0 -d 1 -p cbr -e 500 -c 4 -i 9 -a 4 -x {0.0 2.0 9 ------- null}
h -t 0.245 -s 0 -d 1 -p cbr -e 500 -c 4 -i 9 -a 4 -x {0.0 2.0 -1 ------- null}
r -t 0.245454545454545 -s 1 -d 2 -p cbr -e 500 -c 4 -i 4 -a 4 -x {0.0 2.0 4 ------- null}
r -t 0.246818181818182 -s 0 -d 1 -p cbr -e 500 -c 4 -i 7 -a 4 -x {0.0 2.0 7 ------- null}
+ -t 0.246818181818182 -s 1 -d 2 -p cbr -e 500 -c 4 -i 7 -a 4 -x {0.0 2.0 7 ------- null}
- -t 0.246818181818182 -s 1 -d 2 -p cbr -e 500 -c 4 -i 7 -a 4 -x {0.0 2.0 7 ------- null}
h -t 0.246818181818182 -s 1 -d 2 -p cbr -e 500 -c 4 -i 7 -a 4 -x {0.0 2.0 -1 ------- null}
+ -t 0.25 -s 0 -d 1 -p cbr -e 500 -c 4 -i 10 -a 4 -x {0.0 2.0 10 ------- null}
- -t 0.25 -s 0 -d 1 -p cbr -e 500 -c 4 -i 10 -a 4 -x {0.0 2.0 10 ------- null}
h -t 0.25 -s 0 -d 1 -p cbr -e 500 -c 4 -i 10 -a 4 -x {0.0 2.0 -1 ------- null}
r -t 0.250454545454545 -s 1 -d 2 -p cbr -e 500 -c 4 -i 5 -a 4 -x {0.0 2.0 5 ------- null}
r -t 0.251818181818182 -s 0 -d 1 -p cbr -e 500 -c 4 -i 8 -a 4 -x {0.0 2.0 8 ------- null}
+ -t 0.251818181818182 -s 1 -d 2 -p cbr -e 500 -c 4 -i 8 -a 4 -x {0.0 2.0 8 ------- null}
- -t 0.251818181818182 -s 1 -d 2 -p cbr -e 500 -c 4 -i 8 -a 4 -x {0.0 2.0 8 ------- null}
h -t 0.251818181818182 -s 1 -d 2 -p cbr -e 500 -c 4 -i 8 -a 4 -x {0.0 2.0 -1 ------- null}
+ -t 0.255 -s 0 -d 1 -p cbr -e 500 -c 4 -i 11 -a 4 -x {0.0 2.0 11 ------- null}
- -t 0.255 -s 0 -d 1 -p cbr -e 500 -c 4 -i 11 -a 4 -x {0.0 2.0 11 ------- null}
h -t 0.255 -s 0 -d 1 -p cbr -e 500 -c 4 -i 11 -a 4 -x {0.0 2.0 -1 ------- null}
r -t 0.255454545454545 -s 1 -d 2 -p cbr -e 500 -c 4 -i 6 -a 4 -x {0.0 2.0 6 ------- null}
r -t 0.256818181818182 -s 0 -d 1 -p cbr -e 500 -c 4 -i 9 -a 4 -x {0.0 2.0 9 ------- null}
+ -t 0.256818181818182 -s 1 -d 2 -p cbr -e 500 -c 4 -i 9 -a 4 -x {0.0 2.0 9 ------- null}
- -t 0.256818181818182 -s 1 -d 2 -p cbr -e 500 -c 4 -i 9 -a 4 -x {0.0 2.0 9 ------- null}
h -t 0.256818181818182 -s 1 -d 2 -p cbr -e 500 -c 4 -i 9 -a 4 -x {0.0 2.0 -1 ------- null}
+ -t 0.26 -s 0 -d 1 -p cbr -e 500 -c 4 -i 12 -a 4 -x {0.0 2.0 12 ------- null}
- -t 0.26 -s 0 -d 1 -p cbr -e 500 -c 4 -i 12 -a 4 -x {0.0 2.0 12 ------- null}
h -t 0.26 -s 0 -d 1 -p cbr -e 500 -c 4 -i 12 -a 4 -x {0.0 2.0 -1 ------- null}
r -t 0.260454545454545 -s 1 -d 2 -p cbr -e 500 -c 4 -i 7 -a 4 -x {0.0 2.0 7 ------- null}
r -t 0.261818181818182 -s 0 -d 1 -p cbr -e 500 -c 4 -i 10 -a 4 -x {0.0 2.0 10 ------- null}
+ -t 0.261818181818182 -s 1 -d 2 -p cbr -e 500 -c 4 -i 10 -a 4 -x {0.0 2.0 10 ------- null}
- -t 0.261818181818182 -s 1 -d 2 -p cbr -e 500 -c 4 -i 10 -a 4 -x {0.0 2.0 10 ------- null}
h -t 0.261818181818182 -s 1 -d 2 -p cbr -e 500 -c 4 -i 10 -a 4 -x {0.0 2.0 -1 ------- null}
+ -t 0.265 -s 0 -d 1 -p cbr -e 500 -c 4 -i 13 -a 4 -x {0.0 2.0 13 ------- null}
- -t 0.265 -s 0 -d 1 -p cbr -e 500 -c 4 -i 13 -a 4 -x {0.0 2.0 13 ------- null}
h -t 0.265 -s 0 -d 1 -p cbr -e 500 -c 4 -i 13 -a 4 -x {0.0 2.0 -1 ------- null}
r -t 0.265454545454545 -s 1 -d 2 -p cbr -e 500 -c 4 -i 8 -a 4 -x {0.0 2.0 8 ------- null}
r -t 0.266818181818182 -s 0 -d 1 -p cbr -e 500 -c 4 -i 11 -a 4 -x {0.0 2.0 11 ------- null}
+ -t 0.266818181818182 -s 1 -d 2 -p cbr -e 500 -c 4 -i 11 -a 4 -x {0.0 2.0 11 ------- null}
- -t 0.266818181818182 -s 1 -d 2 -p cbr -e 500 -c 4 -i 11 -a 4 -x {0.0 2.0 11 ------- null}
h -t 0.266818181818182 -s 1 -d 2 -p cbr -e 500 -c 4 -i 11 -a 4 -x {0.0 2.0 -1 ------- null}
+ -t 0.27 -s 0 -d 1 -p cbr -e 500 -c 4 -i 14 -a 4 -x {0.0 2.0 14 ------- null}
- -t 0.27 -s 0 -d 1 -p cbr -e 500 -c 4 -i 14 -a 4 -x {0.0 2.0 14 ------- null}
h -t 0.27 -s 0 -d 1 -p cbr -e 500 -c 4 -i 14 -a 4 -x {0.0 2.0 -1 ------- null}
r -t 0.270454545454546 -s 1 -d 2 -p cbr -e 500 -c 4 -i 9 -a 4 -x {0.0 2.0 9 ------- null}
r -t 0.271818181818182 -s 0 -d 1 -p cbr -e 500 -c 4 -i 12 -a 4 -x {0.0 2.0 12 ------- null}
+ -t 0.271818181818182 -s 1 -d 2 -p cbr -e 500 -c 4 -i 12 -a 4 -x {0.0 2.0 12 ------- null}
- -t 0.271818181818182 -s 1 -d 2 -p cbr -e 500 -c 4 -i 12 -a 4 -x {0.0 2.0 12 ------- null}
h -t 0.271818181818182 -s 1 -d 2 -p cbr -e 500 -c 4 -i 12 -a 4 -x {0.0 2.0 -1 ------- null}
+ -t 0.275 -s 0 -d 1 -p cbr -e 500 -c 4 -i 15 -a 4 -x {0.0 2.0 15 ------- null}
- -t 0.275 -s 0 -d 1 -p cbr -e 500 -c 4 -i 15 -a 4 -x {0.0 2.0 15 ------- null}
h -t 0.275 -s 0 -d 1 -p cbr -e 500 -c 4 -i 15 -a 4 -x {0.0 2.0 -1 ------- null}
r -t 0.275454545454546 -s 1 -d 2 -p cbr -e 500 -c 4 -i 10 -a 4 -x {0.0 2.0 10 ------- null}
r -t 0.276818181818182 -s 0 -d 1 -p cbr -e 500 -c 4 -i 13 -a 4 -x {0.0 2.0 13 ------- null}
+ -t 0.276818181818182 -s 1 -d 2 -p cbr -e 500 -c 4 -i 13 -a 4 -x {0.0 2.0 13 ------- null}
- -t 0.276818181818182 -s 1 -d 2 -p cbr -e 500 -c 4 -i 13 -a 4 -x {0.0 2.0 13 ------- null}
h -t 0.276818181818182 -s 1 -d 2 -p cbr -e 500 -c 4 -i 13 -a 4 -x {0.0 2.0 -1 ------- null}
+ -t 0.28 -s 0 -d 1 -p cbr -e 500 -c 4 -i 16 -a 4 -x {0.0 2.0 16 ------- null}
- -t 0.28 -s 0 -d 1 -p cbr -e 500 -c 4 -i 16 -a 4 -x {0.0 2.0 16 ------- null}
h -t 0.28 -s 0 -d 1 -p cbr -e 500 -c 4 -i 16 -a 4 -x {0.0 2.0 -1 ------- null}
r -t 0.280454545454546 -s 1 -d 2 -p cbr -e 500 -c 4 -i 11 -a 4 -x {0.0 2.0 11 ------- null}
r -t 0.281818181818182 -s 0 -d 1 -p cbr -e 500 -c 4 -i 14 -a 4 -x {0.0 2.0 14 ------- null}
+ -t 0.281818181818182 -s 1 -d 2 -p cbr -e 500 -c 4 -i 14 -a 4 -x {0.0 2.0 14 ------- null}
- -t 0.281818181818182 -s 1 -d 2 -p cbr -e 500 -c 4 -i 14 -a 4 -x {0.0 2.0 14 ------- null}
h -t 0.281818181818182 -s 1 -d 2 -p cbr -e 500 -c 4 -i 14 -a 4 -x {0.0 2.0 -1 ------- null}
+ -t 0.285 -s 0 -d 1 -p cbr -e 500 -c 4 -i 17 -a 4 -x {0.0 2.0 17 ------- null}
- -t 0.285 -s 0 -d 1 -p cbr -e 500 -c 4 -i 17 -a 4 -x {0.0 2.0 17 ------- null}
h -t 0.285 -s 0 -d 1 -p cbr -e 500 -c 4 -i 17 -a 4 -x {0.0 2.0 -1 ------- null}
r -t 0.285454545454546 -s 1 -d 2 -p cbr -e 500 -c 4 -i 12 -a 4 -x {0.0 2.0 12 ------- null}
r -t 0.286818181818182 -s 0 -d 1 -p cbr -e 500 -c 4 -i 15 -a 4 -x {0.0 2.0 15 ------- null}
+ -t 0.286818181818182 -s 1 -d 2 -p cbr -e 500 -c 4 -i 15 -a 4 -x {0.0 2.0 15 ------- null}
- -t 0.286818181818182 -s 1 -d 2 -p cbr -e 500 -c 4 -i 15 -a 4 -x {0.0 2.0 15 ------- null}
h -t 0.286818181818182 -s 1 -d 2 -p cbr -e 500 -c 4 -i 15 -a 4 -x {0.0 2.0 -1 ------- null}
+ -t 0.29 -s 0 -d 1 -p cbr -e 500 -c 4 -i 18 -a 4 -x {0.0 2.0 18 ------- null}
- -t 0.29 -s 0 -d 1 -p cbr -e 500 -c 4 -i 18 -a 4 -x {0.0 2.0 18 ------- null}
h -t 0.29 -s 0 -d 1 -p cbr -e 500 -c 4 -i 18 -a 4 -x {0.0 2.0 -1 ------- null}
r -t 0.290454545454546 -s 1 -d 2 -p cbr -e 500 -c 4 -i 13 -a 4 -x {0.0 2.0 13 ------- null}
r -t 0.291818181818182 -s 0 -d 1 -p cbr -e 500 -c 4 -i 16 -a 4 -x {0.0 2.0 16 ------- null}
+ -t 0.291818181818182 -s 1 -d 2 -p cbr -e 500 -c 4 -i 16 -a 4 -x {0.0 2.0 16 ------- null}
- -t 0.291818181818182 -s 1 -d 2 -p cbr -e 500 -c 4 -i 16 -a 4 -x {0.0 2.0 16 ------- null}
h -t 0.291818181818182 -s 1 -d 2 -p cbr -e 500 -c 4 -i 16 -a 4 -x {0.0 2.0 -1 ------- null}
+ -t 0.295 -s 0 -d 1 -p cbr -e 500 -c 4 -i 19 -a 4 -x {0.0 2.0 19 ------- null}
- -t 0.295 -s 0 -d 1 -p cbr -e 500 -c 4 -i 19 -a 4 -x {0.0 2.0 19 ------- null}
h -t 0.295 -s 0 -d 1 -p cbr -e 500 -c 4 -i 19 -a 4 -x {0.0 2.0 -1 ------- null}
r -t 0.295454545454546 -s 1 -d 2 -p cbr -e 500 -c 4 -i 14 -a 4 -x {0.0 2.0 14 ------- null}
r -t 0.296818181818182 -s 0 -d 1 -p cbr -e 500 -c 4 -i 17 -a 4 -x {0.0 2.0 17 ------- null}
+ -t 0.296818181818182 -s 1 -d 2 -p cbr -e 500 -c 4 -i 17 -a 4 -x {0.0 2.0 17 ------- null}
- -t 0.296818181818182 -s 1 -d 2 -p cbr -e 500 -c 4 -i 17 -a 4 -x {0.0 2.0 17 ------- null}
h -t 0.296818181818182 -s 1 -d 2 -p cbr -e 500 -c 4 -i 17 -a 4 -x {0.0 2.0 -1 ------- null}
+ -t 0.3 -s 0 -d 1 -p cbr -e 500 -c 4 -i 20 -a 4 -x {0.0 2.0 20 ------- null}
- -t 0.3 -s 0 -d 1 -p cbr -e 500 -c 4 -i 20 -a 4 -x {0.0 2.0 20 ------- null}
h -t 0.3 -s 0 -d 1 -p cbr -e 500 -c 4 -i 20 -a 4 -x {0.0 2.0 -1 ------- null}
r -t 0.300454545454546 -s 1 -d 2 -p cbr -e 500 -c 4 -i 15 -a 4 -x {0.0 2.0 15 ------- null}
r -t 0.301818181818182 -s 0 -d 1 -p cbr -e 500 -c 4 -i 18 -a 4 -x {0.0 2.0 18 ------- null}
+ -t 0.301818181818182 -s 1 -d 2 -p cbr -e 500 -c 4 -i 18 -a 4 -x {0.0 2.0 18 ------- null}
- -t 0.301818181818182 -s 1 -d 2 -p cbr -e 500 -c 4 -i 18 -a 4 -x {0.0 2.0 18 ------- null}
h -t 0.301818181818182 -s 1 -d 2 -p cbr -e 500 -c 4 -i 18 -a 4 -x {0.0 2.0 -1 ------- null}
+ -t 0.305 -s 0 -d 1 -p cbr -e 500 -c 4 -i 21 -a 4 -x {0.0 2.0 21 ------- null}
- -t 0.305 -s 0 -d 1 -p cbr -e 500 -c 4 -i 21 -a 4 -x {0.0 2.0 21 ------- null}
h -t 0.305 -s 0 -d 1 -p cbr -e 500 -c 4 -i 21 -a 4 -x {0.0 2.0 -1 ------- null}
r -t 0.305454545454546 -s 1 -d 2 -p cbr -e 500 -c 4 -i 16 -a 4 -x {0.0 2.0 16 ------- null}
r -t 0.306818181818182 -s 0 -d 1 -p cbr -e 500 -c 4 -i 19 -a 4 -x {0.0 2.0 19 ------- null}
+ -t 0.306818181818182 -s 1 -d 2 -p cbr -e 500 -c 4 -i 19 -a 4 -x {0.0 2.0 19 ------- null}
- -t 0.306818181818182 -s 1 -d 2 -p cbr -e 500 -c 4 -i 19 -a 4 -x {0.0 2.0 19 ------- null}
h -t 0.306818181818182 -s 1 -d 2 -p cbr -e 500 -c 4 -i 19 -a 4 -x {0.0 2.0 -1 ------- null}
+ -t 0.31 -s 0 -d 1 -p cbr -e 500 -c 4 -i 22 -a 4 -x {0.0 2.0 22 ------- null}
- -t 0.31 -s 0 -d 1 -p cbr -e 500 -c 4 -i 22 -a 4 -x {0.0 2.0 22 ------- null}
h -t 0.31 -s 0 -d 1 -p cbr -e 500 -c 4 -i 22 -a 4 -x {0.0 2.0 -1 ------- null}
r -t 0.310454545454546 -s 1 -d 2 -p cbr -e 500 -c 4 -i 17 -a 4 -x {0.0 2.0 17 ------- null}
r -t 0.311818181818182 -s 0 -d 1 -p cbr -e 500 -c 4 -i 20 -a 4 -x {0.0 2.0 20 ------- null}
+ -t 0.311818181818182 -s 1 -d 2 -p cbr -e 500 -c 4 -i 20 -a 4 -x {0.0 2.0 20 ------- null}
- -t 0.311818181818182 -s 1 -d 2 -p cbr -e 500 -c 4 -i 20 -a 4 -x {0.0 2.0 20 ------- null}
h -t 0.311818181818182 -s 1 -d 2 -p cbr -e 500 -c 4 -i 20 -a 4 -x {0.0 2.0 -1 ------- null}
+ -t 0.315 -s 0 -d 1 -p cbr -e 500 -c 4 -i 23 -a 4 -x {0.0 2.0 23 ------- null}
- -t 0.315 -s 0 -d 1 -p cbr -e 500 -c 4 -i 23 -a 4 -x {0.0 2.0 23 ------- null}
h -t 0.315 -s 0 -d 1 -p cbr -e 500 -c 4 -i 23 -a 4 -x {0.0 2.0 -1 ------- null}
r -t 0.315454545454546 -s 1 -d 2 -p cbr -e 500 -c 4 -i 18 -a 4 -x {0.0 2.0 18 ------- null}
r -t 0.316818181818182 -s 0 -d 1 -p cbr -e 500 -c 4 -i 21 -a 4 -x {0.0 2.0 21 ------- null}
+ -t 0.316818181818182 -s 1 -d 2 -p cbr -e 500 -c 4 -i 21 -a 4 -x {0.0 2.0 21 ------- null}
- -t 0.316818181818182 -s 1 -d 2 -p cbr -e 500 -c 4 -i 21 -a 4 -x {0.0 2.0 21 ------- null}
h -t 0.316818181818182 -s 1 -d 2 -p cbr -e 500 -c 4 -i 21 -a 4 -x {0.0 2.0 -1 ------- null}
+ -t 0.32 -s 0 -d 1 -p cbr -e 500 -c 4 -i 24 -a 4 -x {0.0 2.0 24 ------- null}
- -t 0.32 -s 0 -d 1 -p cbr -e 500 -c 4 -i 24 -a 4 -x {0.0 2.0 24 ------- null}
h -t 0.32 -s 0 -d 1 -p cbr -e 500 -c 4 -i 24 -a 4 -x {0.0 2.0 -1 ------- null}
r -t 0.320454545454546 -s 1 -d 2 -p cbr -e 500 -c 4 -i 19 -a 4 -x {0.0 2.0 19 ------- null}
r -t 0.321818181818182 -s 0 -d 1 -p cbr -e 500 -c 4 -i 22 -a 4 -x {0.0 2.0 22 ------- null}
+ -t 0.321818181818182 -s 1 -d 2 -p cbr -e 500 -c 4 -i 22 -a 4 -x {0.0 2.0 22 ------- null}
- -t 0.321818181818182 -s 1 -d 2 -p cbr -e 500 -c 4 -i 22 -a 4 -x {0.0 2.0 22 ------- null}
h -t 0.321818181818182 -s 1 -d 2 -p cbr -e 500 -c 4 -i 22 -a 4 -x {0.0 2.0 -1 ------- null}
+ -t 0.325 -s 0 -d 1 -p cbr -e 500 -c 4 -i 25 -a 4 -x {0.0 2.0 25 ------- null}
- -t 0.325 -s 0 -d 1 -p cbr -e 500 -c 4 -i 25 -a 4 -x {0.0 2.0 25 ------- null}
h -t 0.325 -s 0 -d 1 -p cbr -e 500 -c 4 -i 25 -a 4 -x {0.0 2.0 -1 ------- null}
r -t 0.325454545454546 -s 1 -d 2 -p cbr -e 500 -c 4 -i 20 -a 4 -x {0.0 2.0 20 ------- null}
r -t 0.326818181818182 -s 0 -d 1 -p cbr -e 500 -c 4 -i 23 -a 4 -x {0.0 2.0 23 ------- null}
+ -t 0.326818181818182 -s 1 -d 2 -p cbr -e 500 -c 4 -i 23 -a 4 -x {0.0 2.0 23 ------- null}
- -t 0.326818181818182 -s 1 -d 2 -p cbr -e 500 -c 4 -i 23 -a 4 -x {0.0 2.0 23 ------- null}
h -t 0.326818181818182 -s 1 -d 2 -p cbr -e 500 -c 4 -i 23 -a 4 -x {0.0 2.0 -1 ------- null}
+ -t 0.33 -s 0 -d 1 -p cbr -e 500 -c 4 -i 26 -a 4 -x {0.0 2.0 26 ------- null}
- -t 0.33 -s 0 -d 1 -p cbr -e 500 -c 4 -i 26 -a 4 -x {0.0 2.0 26 ------- null}
h -t 0.33 -s 0 -d 1 -p cbr -e 500 -c 4 -i 26 -a 4 -x {0.0 2.0 -1 ------- null}
r -t 0.330454545454546 -s 1 -d 2 -p cbr -e 500 -c 4 -i 21 -a 4 -x {0.0 2.0 21 ------- null}
r -t 0.331818181818182 -s 0 -d 1 -p cbr -e 500 -c 4 -i 24 -a 4 -x {0.0 2.0 24 ------- null}
+ -t 0.331818181818182 -s 1 -d 2 -p cbr -e 500 -c 4 -i 24 -a 4 -x {0.0 2.0 24 ------- null}
- -t 0.331818181818182 -s 1 -d 2 -p cbr -e 500 -c 4 -i 24 -a 4 -x {0.0 2.0 24 ------- null}
h -t 0.331818181818182 -s 1 -d 2 -p cbr -e 500 -c 4 -i 24 -a 4 -x {0.0 2.0 -1 ------- null}
+ -t 0.335 -s 0 -d 1 -p cbr -e 500 -c 4 -i 27 -a 4 -x {0.0 2.0 27 ------- null}
- -t 0.335 -s 0 -d 1 -p cbr -e 500 -c 4 -i 27 -a 4 -x {0.0 2.0 27 ------- null}
h -t 0.335 -s 0 -d 1 -p cbr -e 500 -c 4 -i 27 -a 4 -x {0.0 2.0 -1 ------- null}
r -t 0.335454545454546 -s 1 -d 2 -p cbr -e 500 -c 4 -i 22 -a 4 -x {0.0 2.0 22 ------- null}
r -t 0.336818181818182 -s 0 -d 1 -p cbr -e 500 -c 4 -i 25 -a 4 -x {0.0 2.0 25 ------- null}
+ -t 0.336818181818182 -s 1 -d 2 -p cbr -e 500 -c 4 -i 25 -a 4 -x {0.0 2.0 25 ------- null}
- -t 0.336818181818182 -s 1 -d 2 -p cbr -e 500 -c 4 -i 25 -a 4 -x {0.0 2.0 25 ------- null}
h -t 0.336818181818182 -s 1 -d 2 -p cbr -e 500 -c 4 -i 25 -a 4 -x {0.0 2.0 -1 ------- null}
+ -t 0.34 -s 0 -d 1 -p cbr -e 500 -c 4 -i 28 -a 4 -x {0.0 2.0 28 ------- null}
- -t 0.34 -s 0 -d 1 -p cbr -e 500 -c 4 -i 28 -a 4 -x {0.0 2.0 28 ------- null}
h -t 0.34 -s 0 -d 1 -p cbr -e 500 -c 4 -i 28 -a 4 -x {0.0 2.0 -1 ------- null}
r -t 0.340454545454546 -s 1 -d 2 -p cbr -e 500 -c 4 -i 23 -a 4 -x {0.0 2.0 23 ------- null}
r -t 0.341818181818182 -s 0 -d 1 -p cbr -e 500 -c 4 -i 26 -a 4 -x {0.0 2.0 26 ------- null}
+ -t 0.341818181818182 -s 1 -d 2 -p cbr -e 500 -c 4 -i 26 -a 4 -x {0.0 2.0 26 ------- null}
- -t 0.341818181818182 -s 1 -d 2 -p cbr -e 500 -c 4 -i 26 -a 4 -x {0.0 2.0 26 ------- null}
h -t 0.341818181818182 -s 1 -d 2 -p cbr -e 500 -c 4 -i 26 -a 4 -x {0.0 2.0 -1 ------- null}
+ -t 0.345 -s 0 -d 1 -p cbr -e 500 -c 4 -i 29 -a 4 -x {0.0 2.0 29 ------- null}
- -t 0.345 -s 0 -d 1 -p cbr -e 500 -c 4 -i 29 -a 4 -x {0.0 2.0 29 ------- null}
h -t 0.345 -s 0 -d 1 -p cbr -e 500 -c 4 -i 29 -a 4 -x {0.0 2.0 -1 ------- null}
r -t 0.345454545454546 -s 1 -d 2 -p cbr -e 500 -c 4 -i 24 -a 4 -x {0.0 2.0 24 ------- null}
r -t 0.346818181818182 -s 0 -d 1 -p cbr -e 500 -c 4 -i 27 -a 4 -x {0.0 2.0 27 ------- null}
+ -t 0.346818181818182 -s 1 -d 2 -p cbr -e 500 -c 4 -i 27 -a 4 -x {0.0 2.0 27 ------- null}
- -t 0.346818181818182 -s 1 -d 2 -p cbr -e 500 -c 4 -i 27 -a 4 -x {0.0 2.0 27 ------- null}
h -t 0.346818181818182 -s 1 -d 2 -p cbr -e 500 -c 4 -i 27 -a 4 -x {0.0 2.0 -1 ------- null}
+ -t 0.35 -s 0 -d 1 -p cbr -e 500 -c 4 -i 30 -a 4 -x {0.0 2.0 30 ------- null}
- -t 0.35 -s 0 -d 1 -p cbr -e 500 -c 4 -i 30 -a 4 -x {0.0 2.0 30 ------- null}
h -t 0.35 -s 0 -d 1 -p cbr -e 500 -c 4 -i 30 -a 4 -x {0.0 2.0 -1 ------- null}
r -t 0.350454545454546 -s 1 -d 2 -p cbr -e 500 -c 4 -i 25 -a 4 -x {0.0 2.0 25 ------- null}
r -t 0.351818181818182 -s 0 -d 1 -p cbr -e 500 -c 4 -i 28 -a 4 -x {0.0 2.0 28 ------- null}
+ -t 0.351818181818182 -s 1 -d 2 -p cbr -e 500 -c 4 -i 28 -a 4 -x {0.0 2.0 28 ------- null}
- -t 0.351818181818182 -s 1 -d 2 -p cbr -e 500 -c 4 -i 28 -a 4 -x {0.0 2.0 28 ------- null}
h -t 0.351818181818182 -s 1 -d 2 -p cbr -e 500 -c 4 -i 28 -a 4 -x {0.0 2.0 -1 ------- null}
+ -t 0.355 -s 0 -d 1 -p cbr -e 500 -c 4 -i 31 -a 4 -x {0.0 2.0 31 ------- null}
- -t 0.355 -s 0 -d 1 -p cbr -e 500 -c 4 -i 31 -a 4 -x {0.0 2.0 31 ------- null}
h -t 0.355 -s 0 -d 1 -p cbr -e 500 -c 4 -i 31 -a 4 -x {0.0 2.0 -1 ------- null}
r -t 0.355454545454546 -s 1 -d 2 -p cbr -e 500 -c 4 -i 26 -a 4 -x {0.0 2.0 26 ------- null}
r -t 0.356818181818182 -s 0 -d 1 -p cbr -e 500 -c 4 -i 29 -a 4 -x {0.0 2.0 29 ------- null}
+ -t 0.356818181818182 -s 1 -d 2 -p cbr -e 500 -c 4 -i 29 -a 4 -x {0.0 2.0 29 ------- null}
- -t 0.356818181818182 -s 1 -d 2 -p cbr -e 500 -c 4 -i 29 -a 4 -x {0.0 2.0 29 ------- null}
h -t 0.356818181818182 -s 1 -d 2 -p cbr -e 500 -c 4 -i 29 -a 4 -x {0.0 2.0 -1 ------- null}
+ -t 0.36 -s 0 -d 1 -p cbr -e 500 -c 4 -i 32 -a 4 -x {0.0 2.0 32 ------- null}
- -t 0.36 -s 0 -d 1 -p cbr -e 500 -c 4 -i 32 -a 4 -x {0.0 2.0 32 ------- null}
h -t 0.36 -s 0 -d 1 -p cbr -e 500 -c 4 -i 32 -a 4 -x {0.0 2.0 -1 ------- null}
r -t 0.360454545454546 -s 1 -d 2 -p cbr -e 500 -c 4 -i 27 -a 4 -x {0.0 2.0 27 ------- null}
r -t 0.361818181818182 -s 0 -d 1 -p cbr -e 500 -c 4 -i 30 -a 4 -x {0.0 2.0 30 ------- null}
+ -t 0.361818181818182 -s 1 -d 2 -p cbr -e 500 -c 4 -i 30 -a 4 -x {0.0 2.0 30 ------- null}
- -t 0.361818181818182 -s 1 -d 2 -p cbr -e 500 -c 4 -i 30 -a 4 -x {0.0 2.0 30 ------- null}
h -t 0.361818181818182 -s 1 -d 2 -p cbr -e 500 -c 4 -i 30 -a 4 -x {0.0 2.0 -1 ------- null}
+ -t 0.365 -s 0 -d 1 -p cbr -e 500 -c 4 -i 33 -a 4 -x {0.0 2.0 33 ------- null}
- -t 0.365 -s 0 -d 1 -p cbr -e 500 -c 4 -i 33 -a 4 -x {0.0 2.0 33 ------- null}
h -t 0.365 -s 0 -d 1 -p cbr -e 500 -c 4 -i 33 -a 4 -x {0.0 2.0 -1 ------- null}
r -t 0.365454545454546 -s 1 -d 2 -p cbr -e 500 -c 4 -i 28 -a 4 -x {0.0 2.0 28 ------- null}
r -t 0.366818181818182 -s 0 -d 1 -p cbr -e 500 -c 4 -i 31 -a 4 -x {0.0 2.0 31 ------- null}
+ -t 0.366818181818182 -s 1 -d 2 -p cbr -e 500 -c 4 -i 31 -a 4 -x {0.0 2.0 31 ------- null}
- -t 0.366818181818182 -s 1 -d 2 -p cbr -e 500 -c 4 -i 31 -a 4 -x {0.0 2.0 31 ------- null}
h -t 0.366818181818182 -s 1 -d 2 -p cbr -e 500 -c 4 -i 31 -a 4 -x {0.0 2.0 -1 ------- null}
+ -t 0.37 -s 0 -d 1 -p cbr -e 500 -c 4 -i 34 -a 4 -x {0.0 2.0 34 ------- null}
- -t 0.37 -s 0 -d 1 -p cbr -e 500 -c 4 -i 34 -a 4 -x {0.0 2.0 34 ------- null}
h -t 0.37 -s 0 -d 1 -p cbr -e 500 -c 4 -i 34 -a 4 -x {0.0 2.0 -1 ------- null}
r -t 0.370454545454546 -s 1 -d 2 -p cbr -e 500 -c 4 -i 29 -a 4 -x {0.0 2.0 29 ------- null}
r -t 0.371818181818182 -s 0 -d 1 -p cbr -e 500 -c 4 -i 32 -a 4 -x {0.0 2.0 32 ------- null}
+ -t 0.371818181818182 -s 1 -d 2 -p cbr -e 500 -c 4 -i 32 -a 4 -x {0.0 2.0 32 ------- null}
- -t 0.371818181818182 -s 1 -d 2 -p cbr -e 500 -c 4 -i 32 -a 4 -x {0.0 2.0 32 ------- null}
h -t 0.371818181818182 -s 1 -d 2 -p cbr -e 500 -c 4 -i 32 -a 4 -x {0.0 2.0 -1 ------- null}
+ -t 0.375 -s 0 -d 1 -p cbr -e 500 -c 4 -i 35 -a 4 -x {0.0 2.0 35 ------- null}
- -t 0.375 -s 0 -d 1 -p cbr -e 500 -c 4 -i 35 -a 4 -x {0.0 2.0 35 ------- null}
h -t 0.375 -s 0 -d 1 -p cbr -e 500 -c 4 -i 35 -a 4 -x {0.0 2.0 -1 ------- null}
r -t 0.375454545454546 -s 1 -d 2 -p cbr -e 500 -c 4 -i 30 -a 4 -x {0.0 2.0 30 ------- null}
r -t 0.376818181818182 -s 0 -d 1 -p cbr -e 500 -c 4 -i 33 -a 4 -x {0.0 2.0 33 ------- null}
+ -t 0.376818181818182 -s 1 -d 2 -p cbr -e 500 -c 4 -i 33 -a 4 -x {0.0 2.0 33 ------- null}
- -t 0.376818181818182 -s 1 -d 2 -p cbr -e 500 -c 4 -i 33 -a 4 -x {0.0 2.0 33 ------- null}
h -t 0.376818181818182 -s 1 -d 2 -p cbr -e 500 -c 4 -i 33 -a 4 -x {0.0 2.0 -1 ------- null}
+ -t 0.38 -s 0 -d 1 -p cbr -e 500 -c 4 -i 36 -a 4 -x {0.0 2.0 36 ------- null}
- -t 0.38 -s 0 -d 1 -p cbr -e 500 -c 4 -i 36 -a 4 -x {0.0 2.0 36 ------- null}
h -t 0.38 -s 0 -d 1 -p cbr -e 500 -c 4 -i 36 -a 4 -x {0.0 2.0 -1 ------- null}
r -t 0.380454545454546 -s 1 -d 2 -p cbr -e 500 -c 4 -i 31 -a 4 -x {0.0 2.0 31 ------- null}
r -t 0.381818181818182 -s 0 -d 1 -p cbr -e 500 -c 4 -i 34 -a 4 -x {0.0 2.0 34 ------- null}
+ -t 0.381818181818182 -s 1 -d 2 -p cbr -e 500 -c 4 -i 34 -a 4 -x {0.0 2.0 34 ------- null}
- -t 0.381818181818182 -s 1 -d 2 -p cbr -e 500 -c 4 -i 34 -a 4 -x {0.0 2.0 34 ------- null}
h -t 0.381818181818182 -s 1 -d 2 -p cbr -e 500 -c 4 -i 34 -a 4 -x {0.0 2.0 -1 ------- null}
+ -t 0.385 -s 0 -d 1 -p cbr -e 500 -c 4 -i 37 -a 4 -x {0.0 2.0 37 ------- null}
- -t 0.385 -s 0 -d 1 -p cbr -e 500 -c 4 -i 37 -a 4 -x {0.0 2.0 37 ------- null}
h -t 0.385 -s 0 -d 1 -p cbr -e 500 -c 4 -i 37 -a 4 -x {0.0 2.0 -1 ------- null}
r -t 0.385454545454546 -s 1 -d 2 -p cbr -e 500 -c 4 -i 32 -a 4 -x {0.0 2.0 32 ------- null}
r -t 0.386818181818182 -s 0 -d 1 -p cbr -e 500 -c 4 -i 35 -a 4 -x {0.0 2.0 35 ------- null}
+ -t 0.386818181818182 -s 1 -d 2 -p cbr -e 500 -c 4 -i 35 -a 4 -x {0.0 2.0 35 ------- null}
- -t 0.386818181818182 -s 1 -d 2 -p cbr -e 500 -c 4 -i 35 -a 4 -x {0.0 2.0 35 ------- null}
h -t 0.386818181818182 -s 1 -d 2 -p cbr -e 500 -c 4 -i 35 -a 4 -x {0.0 2.0 -1 ------- null}
+ -t 0.39 -s 0 -d 1 -p cbr -e 500 -c 4 -i 38 -a 4 -x {0.0 2.0 38 ------- null}
- -t 0.39 -s 0 -d 1 -p cbr -e 500 -c 4 -i 38 -a 4 -x {0.0 2.0 38 ------- null}
h -t 0.39 -s 0 -d 1 -p cbr -e 500 -c 4 -i 38 -a 4 -x {0.0 2.0 -1 ------- null}
r -t 0.390454545454546 -s 1 -d 2 -p cbr -e 500 -c 4 -i 33 -a 4 -x {0.0 2.0 33 ------- null}
r -t 0.391818181818182 -s 0 -d 1 -p cbr -e 500 -c 4 -i 36 -a 4 -x {0.0 2.0 36 ------- null}
+ -t 0.391818181818182 -s 1 -d 2 -p cbr -e 500 -c 4 -i 36 -a 4 -x {0.0 2.0 36 ------- null}
- -t 0.391818181818182 -s 1 -d 2 -p cbr -e 500 -c 4 -i 36 -a 4 -x {0.0 2.0 36 ------- null}
h -t 0.391818181818182 -s 1 -d 2 -p cbr -e 500 -c 4 -i 36 -a 4 -x {0.0 2.0 -1 ------- null}
+ -t 0.395 -s 0 -d 1 -p cbr -e 500 -c 4 -i 39 -a 4 -x {0.0 2.0 39 ------- null}
- -t 0.395 -s 0 -d 1 -p cbr -e 500 -c 4 -i 39 -a 4 -x {0.0 2.0 39 ------- null}
h -t 0.395 -s 0 -d 1 -p cbr -e 500 -c 4 -i 39 -a 4 -x {0.0 2.0 -1 ------- null}
r -t 0.395454545454546 -s 1 -d 2 -p cbr -e 500 -c 4 -i 34 -a 4 -x {0.0 2.0 34 ------- null}
r -t 0.396818181818182 -s 0 -d 1 -p cbr -e 500 -c 4 -i 37 -a 4 -x {0.0 2.0 37 ------- null}
+ -t 0.396818181818182 -s 1 -d 2 -p cbr -e 500 -c 4 -i 37 -a 4 -x {0.0 2.0 37 ------- null}
- -t 0.396818181818182 -s 1 -d 2 -p cbr -e 500 -c 4 -i 37 -a 4 -x {0.0 2.0 37 ------- null}
h -t 0.396818181818182 -s 1 -d 2 -p cbr -e 500 -c 4 -i 37 -a 4 -x {0.0 2.0 -1 ------- null}
+ -t 0.4 -s 0 -d 1 -p cbr -e 500 -c 4 -i 40 -a 4 -x {0.0 2.0 40 ------- null}
- -t 0.4 -s 0 -d 1 -p cbr -e 500 -c 4 -i 40 -a 4 -x {0.0 2.0 40 ------- null}
h -t 0.4 -s 0 -d 1 -p cbr -e 500 -c 4 -i 40 -a 4 -x {0.0 2.0 -1 ------- null}
r -t 0.400454545454546 -s 1 -d 2 -p cbr -e 500 -c 4 -i 35 -a 4 -x {0.0 2.0 35 ------- null}
r -t 0.401818181818182 -s 0 -d 1 -p cbr -e 500 -c 4 -i 38 -a 4 -x {0.0 2.0 38 ------- null}
+ -t 0.401818181818182 -s 1 -d 2 -p cbr -e 500 -c 4 -i 38 -a 4 -x {0.0 2.0 38 ------- null}
- -t 0.401818181818182 -s 1 -d 2 -p cbr -e 500 -c 4 -i 38 -a 4 -x {0.0 2.0 38 ------- null}
h -t 0.401818181818182 -s 1 -d 2 -p cbr -e 500 -c 4 -i 38 -a 4 -x {0.0 2.0 -1 ------- null}
+ -t 0.405 -s 0 -d 1 -p cbr -e 500 -c 4 -i 41 -a 4 -x {0.0 2.0 41 ------- null}
- -t 0.405 -s 0 -d 1 -p cbr -e 500 -c 4 -i 41 -a 4 -x {0.0 2.0 41 ------- null}
h -t 0.405 -s 0 -d 1 -p cbr -e 500 -c 4 -i 41 -a 4 -x {0.0 2.0 -1 ------- null}
r -t 0.405454545454546 -s 1 -d 2 -p cbr -e 500 -c 4 -i 36 -a 4 -x {0.0 2.0 36 ------- null}
r -t 0.406818181818182 -s 0 -d 1 -p cbr -e 500 -c 4 -i 39 -a 4 -x {0.0 2.0 39 ------- null}
+ -t 0.406818181818182 -s 1 -d 2 -p cbr -e 500 -c 4 -i 39 -a 4 -x {0.0 2.0 39 ------- null}
- -t 0.406818181818182 -s 1 -d 2 -p cbr -e 500 -c 4 -i 39 -a 4 -x {0.0 2.0 39 ------- null}
h -t 0.406818181818182 -s 1 -d 2 -p cbr -e 500 -c 4 -i 39 -a 4 -x {0.0 2.0 -1 ------- null}
+ -t 0.41 -s 0 -d 1 -p cbr -e 500 -c 4 -i 42 -a 4 -x {0.0 2.0 42 ------- null}
- -t 0.41 -s 0 -d 1 -p cbr -e 500 -c 4 -i 42 -a 4 -x {0.0 2.0 42 ------- null}
h -t 0.41 -s 0 -d 1 -p cbr -e 500 -c 4 -i 42 -a 4 -x {0.0 2.0 -1 ------- null}
r -t 0.410454545454546 -s 1 -d 2 -p cbr -e 500 -c 4 -i 37 -a 4 -x {0.0 2.0 37 ------- null}
r -t 0.411818181818182 -s 0 -d 1 -p cbr -e 500 -c 4 -i 40 -a 4 -x {0.0 2.0 40 ------- null}
+ -t 0.411818181818182 -s 1 -d 2 -p cbr -e 500 -c 4 -i 40 -a 4 -x {0.0 2.0 40 ------- null}
- -t 0.411818181818182 -s 1 -d 2 -p cbr -e 500 -c 4 -i 40 -a 4 -x {0.0 2.0 40 ------- null}
h -t 0.411818181818182 -s 1 -d 2 -p cbr -e 500 -c 4 -i 40 -a 4 -x {0.0 2.0 -1 ------- null}
+ -t 0.415 -s 0 -d 1 -p cbr -e 500 -c 4 -i 43 -a 4 -x {0.0 2.0 43 ------- null}
- -t 0.415 -s 0 -d 1 -p cbr -e 500 -c 4 -i 43 -a 4 -x {0.0 2.0 43 ------- null}
h -t 0.415 -s 0 -d 1 -p cbr -e 500 -c 4 -i 43 -a 4 -x {0.0 2.0 -1 ------- null}
r -t 0.415454545454546 -s 1 -d 2 -p cbr -e 500 -c 4 -i 38 -a 4 -x {0.0 2.0 38 ------- null}
r -t 0.416818181818182 -s 0 -d 1 -p cbr -e 500 -c 4 -i 41 -a 4 -x {0.0 2.0 41 ------- null}
+ -t 0.416818181818182 -s 1 -d 2 -p cbr -e 500 -c 4 -i 41 -a 4 -x {0.0 2.0 41 ------- null}
- -t 0.416818181818182 -s 1 -d 2 -p cbr -e 500 -c 4 -i 41 -a 4 -x {0.0 2.0 41 ------- null}
h -t 0.416818181818182 -s 1 -d 2 -p cbr -e 500 -c 4 -i 41 -a 4 -x {0.0 2.0 -1 ------- null}