+ 0.2 0 1 cbr 500 ------- 4 0.0 2.0 0 0
- 0.2 0 1 cbr 500 ------- 4 0.0 2.0 0 0
+ 0.205 0 1 cbr 500 ------- 4 0.0 2.0 1 1
- 0.205 0 1 cbr 500 ------- 4 0.0 2.0 1 1
+ 0.21 0 1 cbr 500 ------- 4 0.0 2.0 2 2
- 0.21 0 1 cbr 500 ------- 4 0.0 2.0 2 2
r 0.211818 0 1 cbr 500 ------- 4 0.0 2.0 0 0
+ 0.211818 1 2 cbr 500 ------- 4 0.0 2.0 0 0
- 0.211818 1 2 cbr 500 ------- 4 0.0 2.0 0 0
+ 0.215 0 1 cbr 500 ------- 4 0.0 2.0 3 3
- 0.215 0 1 cbr 500 ------- 4 0.0 2.0 3 3
r 0.216818 0 1 cbr 500 ------- 4 0.0 2.0 1 1
+ 0.216818 1 2 cbr 500 ------- 4 0.0 2.0 1 1
- 0.216818 1 2 cbr 500 ------- 4 0.0 2.0 1 1
+ 0.22 0 1 cbr 500 ------- 4 0.0 2.0 4 4
- 0.22 0 1 cbr 500 ------- 4 0.0 2.0 4 4
r 0.221818 0 1 cbr 500 ------- 4 0.0 2.0 2 2
+ 0.221818 1 2 cbr 500 ------- 4 0.0 2.0 2 2
- 0.221818 1 2 cbr 500 ------- 4 0.0 2.0 2 2
+ 0.225 0 1 cbr 500 ------- 4 0.0 2.0 5 5
- 0.225 0 1 cbr 500 ------- 4 0.0 2.0 5 5
r 0.225455 1 2 cbr 500 ------- 4 0.0 2.0 0 0
r 0.226818 0 1 cbr 500 ------- 4 0.0 2.0 3 3
+ 0.226818 1 2 cbr 500 ------- 4 0.0 2.0 3 3
- 0.226818 1 2 cbr 500 ------- 4 0.0 2.0 3 3
+ 0.23 0 1 cbr 500 ------- 4 0.0 2.0 6 6
- 0.23 0 1 cbr 500 ------- 4 0.0 2.0 6 6
r 0.230455 1 2 cbr 500 ------- 4 0.0 2.0 1 1
r 0.231818 0 1 cbr 500 ------- 4 0.0 2.0 4 4
+ 0.231818 1 2 cbr 500 ------- 4 0.0 2.0 4 4
- 0.231818 1 2 cbr 500 ------- 4 0.0 2.0 4 4
+ 0.235 0 1 cbr 500 ------- 4 0.0 2.0 7 7
- 0.235 0 1 cbr 500 ------- 4 0.0 2.0 7 7
r 0.235455 1 2 cbr 500 ------- 4 0.0 2.0 2 2
r 0.236818 0 1 cbr 500 ------- 4 0.0 2.0 5 5
+ 0.236818 1 2 cbr 500 ------- 4 0.0 2.0 5 5
- 0.236818 1 2 cbr 500 ------- 4 0.0 2.0 5 5
+ 0.24 0 1 cbr 500 ------- 4 0.0 2.0 8 8
- 0.24 0 1 cbr 500 ------- 4 0.0 2.0 8 8
r 0.240455 1 2 cbr 500 ------- 4 0.0 2.0 3 3
r 0.241818 0 1 cbr 500 ------- 4 0.0 2.0 6 6
+ 0.241818 1 2 cbr 500 ------- 4 0.0 2.0 6 6
- 0.241818 1 2 cbr 500 ------- 4 0.0 2.0 6 6
+ 0.245 0 1 cbr 500 ------- 4 0.0 2.0 9 9
- 0.245 0 1 cbr 500 ------- 4 0.0 2.0 9 9
r 0.245455 1 2 cbr 500 ------- 4 0.0 2.0 4 4
r 0.246818 0 1 cbr 500 ------- 4 0.0 2.0 7 7
+ 0.246818 1 2 cbr 500 ------- 4 0.0 2.0 7 7
- 0.246818 1 2 cbr 500 ------- 4 0.0 2.0 7 7
+ 0.25 0 1 cbr 500 ------- 4 0.0 2.0 10 10
- 0.25 0 1 cbr 500 ------- 4 0.0 2.0 10 10
r 0.250455 1 2 cbr 500 ------- 4 0.0 2.0 5 5
r 0.251818 0 1 cbr 500 ------- 4 0.0 2.0 8 8
+ 0.251818 1 2 cbr 500 ------- 4 0.0 2.0 8 8
- 0.251818 1 2 cbr 500 ------- 4 0.0 2.0 8 8
+ 0.255 0 1 cbr 500 ------- 4 0.0 2.0 11 11
- 0.255 0 1 cbr 500 ------- 4 0.0 2.0 11 11
r 0.255455 1 2 cbr 500 ------- 4 0.0 2.0 6 6
r 0.256818 0 1 cbr 500 ------- 4 0.0 2.0 9 9
+ 0.256818 1 2 cbr 500 ------- 4 0.0 2.0 9 9
- 0.256818 1 2 cbr 500 ------- 4 0.0 2.0 9 9
+ 0.26 0 1 cbr 500 ------- 4 0.0 2.0 12 12
- 0.26 0 1 cbr 500 ------- 4 0.0 2.0 12 12
r 0.260455 1 2 cbr 500 ------- 4 0.0 2.0 7 7
r 0.261818 0 1 cbr 500 ------- 4 0.0 2.0 10 10
+ 0.261818 1 2 cbr 500 ------- 4 0.0 2.0 10 10
- 0.261818 1 2 cbr 500 ------- 4 0.0 2.0 10 10
+ 0.265 0 1 cbr 500 ------- 4 0.0 2.0 13 13
- 0.265 0 1 cbr 500 ------- 4 0.0 2.0 13 13
r 0.265455 1 2 cbr 500 ------- 4 0.0 2.0 8 8
r 0.266818 0 1 cbr 500 ------- 4 0.0 2.0 11 11
+ 0.266818 1 2 cbr 500 ------- 4 0.0 2.0 11 11
- 0.266818 1 2 cbr 500 ------- 4 0.0 2.0 11 11
+ 0.27 0 1 cbr 500 ------- 4 0.0 2.0 14 14
- 0.27 0 1 cbr 500 ------- 4 0.0 2.0 14 14
r 0.270455 1 2 cbr 500 ------- 4 0.0 2.0 9 9
r 0.271818 0 1 cbr 500 ------- 4 0.0 2.0 12 12
+ 0.271818 1 2 cbr 500 ------- 4 0.0 2.0 12 12
- 0.271818 1 2 cbr 500 ------- 4 0.0 2.0 12 12
+ 0.275 0 1 cbr 500 ------- 4 0.0 2.0 15 15
- 0.275 0 1 cbr 500 ------- 4 0.0 2.0 15 15
r 0.275455 1 2 cbr 500 ------- 4 0.0 2.0 10 10
r 0.276818 0 1 cbr 500 ------- 4 0.0 2.0 13 13
+ 0.276818 1 2 cbr 500 ------- 4 0.0 2.0 13 13
- 0.276818 1 2 cbr 500 ------- 4 0.0 2.0 13 13
+ 0.28 0 1 cbr 500 ------- 4 0.0 2.0 16 16
- 0.28 0 1 cbr 500 ------- 4 0.0 2.0 16 16
r 0.280455 1 2 cbr 500 ------- 4 0.0 2.0 11 11
r 0.281818 0 1 cbr 500 ------- 4 0.0 2.0 14 14
+ 0.281818 1 2 cbr 500 ------- 4 0.0 2.0 14 14
- 0.281818 1 2 cbr 500 ------- 4 0.0 2.0 14 14
+ 0.285 0 1 cbr 500 ------- 4 0.0 2.0 17 17
- 0.285 0 1 cbr 500 ------- 4 0.0 2.0 17 17
r 0.285455 1 2 cbr 500 ------- 4 0.0 2.0 12 12
r 0.286818 0 1 cbr 500 ------- 4 0.0 2.0 15 15
+ 0.286818 1 2 cbr 500 ------- 4 0.0 2.0 15 15
- 0.286818 1 2 cbr 500 ------- 4 0.0 2.0 15 15
+ 0.29 0 1 cbr 500 ------- 4 0.0 2.0 18 18
- 0.29 0 1 cbr 500 ------- 4 0.0 2.0 18 18
r 0.290455 1 2 cbr 500 ------- 4 0.0 2.0 13 13
r 0.291818 0 1 cbr 500 ------- 4 0.0 2.0 16 16
+ 0.291818 1 2 cbr 500 ------- 4 0.0 2.0 16 16
- 0.291818 1 2 cbr 500 ------- 4 0.0 2.0 16 16
+ 0.295 0 1 cbr 500 ------- 4 0.0 2.0 19 19
- 0.295 0 1 cbr 500 ------- 4 0.0 2.0 19 19
r 0.295455 1 2 cbr 500 ------- 4 0.0 2.0 14 14
r 0.296818 0 1 cbr 500 ------- 4 0.0 2.0 17 17
+ 0.296818 1 2 cbr 500 ------- 4 0.0 2.0 17 17
- 0.296818 1 2 cbr 500 ------- 4 0.0 2.0 17 17
+ 0.3 0 1 cbr 500 ------- 4 0.0 2.0 20 20
- 0.3 0 1 cbr 500 ------- 4 0.0 2.0 20 20
r 0.300455 1 2 cbr 500 ------- 4 0.0 2.0 15 15
r 0.301818 0 1 cbr 500 ------- 4 0.0 2.0 18 18
+ 0.301818 1 2 cbr 500 ------- 4 0.0 2.0 18 18
- 0.301818 1 2 cbr 500 ------- 4 0.0 2.0 18 18
+ 0.305 0 1 cbr 500 ------- 4 0.0 2.0 21 21
- 0.305 0 1 cbr 500 ------- 4 0.0 2.0 21 21
r 0.305455 1 2 cbr 500 ------- 4 0.0 2.0 16 16
r 0.306818 0 1 cbr 500 ------- 4 0.0 2.0 19 19
+ 0.306818 1 2 cbr 500 ------- 4 0.0 2.0 19 19
- 0.306818 1 2 cbr 500 ------- 4 0.0 2.0 19 19
+ 0.31 0 1 cbr 500 ------- 4 0.0 2.0 22 22
- 0.31 0 1 cbr 500 ------- 4 0.0 2.0 22 22
r 0.310455 1 2 cbr 500 ------- 4 0.0 2.0 17 17
r 0.311818 0 1 cbr 500 ------- 4 0.0 2.0 20 20
+ 0.311818 1 2 cbr 500 ------- 4 0.0 2.0 20 20
- 0.311818 1 2 cbr 500 ------- 4 0.0 2.0 20 20
+ 0.315 0 1 cbr 500 ------- 4 0.0 2.0 23 23
- 0.315 0 1 cbr 500 ------- 4 0.0 2.0 23 23
r 0.315455 1 2 cbr 500 ------- 4 0.0 2.0 18 18
r 0.316818 0 1 cbr 500 ------- 4 0.0 2.0 21 21
+ 0.316818 1 2 cbr 500 ------- 4 0.0 2.0 21 21
- 0.316818 1 2 cbr 500 ------- 4 0.0 2.0 21 21
+ 0.32 0 1 cbr 500 ------- 4 0.0 2.0 24 24
- 0.32 0 1 cbr 500 ------- 4 0.0 2.0 24 24
r 0.320455 1 2 cbr 500 ------- 4 0.0 2.0 19 19
r 0.321818 0 1 cbr 500 ------- 4 0.0 2.0 22 22
+ 0.321818 1 2 cbr 500 ------- 4 0.0 2.0 22 22
- 0.321818 1 2 cbr 500 ------- 4 0.0 2.0 22 22
+ 0.325 0 1 cbr 500 ------- 4 0.0 2.0 25 25
- 0.325 0 1 cbr 500 ------- 4 0.0 2.0 25 25
r 0.325455 1 2 cbr 500 ------- 4 0.0 2.0 20 20
r 0.326818 0 1 cbr 500 ------- 4 0.0 2.0 23 23
+ 0.326818 1 2 cbr 500 ------- 4 0.0 2.0 23 23
- 0.326818 1 2 cbr 500 ------- 4 0.0 2.0 23 23
+ 0.33 0 1 cbr 500 ------- 4 0.0 2.0 26 26
- 0.33 0 1 cbr 500 ------- 4 0.0 2.0 26 26
r 0.330455 1 2 cbr 500 ------- 4 0.0 2.0 21 21
r 0.331818 0 1 cbr 500 ------- 4 0.0 2.0 24 24
+ 0.331818 1 2 cbr 500 ------- 4 0.0 2.0 24 24
- 0.331818 1 2 cbr 500 ------- 4 0.0 2.0 24 24
+ 0.335 0 1 cbr 500 ------- 4 0.0 2.0 27 27
- 0.335 0 1 cbr 500 ------- 4 0.0 2.0 27 27
r 0.335455 1 2 cbr 500 ------- 4 0.0 2.0 22 22
r 0.336818 0 1 cbr 500 ------- 4 0.0 2.0 25 25
+ 0.336818 1 2 cbr 500 ------- 4 0.0 2.0 25 25
- 0.336818 1 2 cbr 500 ------- 4 0.0 2.0 25 25
+ 0.34 0 1 cbr 500 ------- 4 0.0 2.0 28 28
- 0.34 0 1 cbr 500 ------- 4 0.0 2.0 28 28
r 0.340455 1 2 cbr 500 ------- 4 0.0 2.0 23 23
r 0.341818 0 1 cbr 500 ------- 4 0.0 2.0 26 26
+ 0.341818 1 2 cbr 500 ------- 4 0.0 2.0 26 26
- 0.341818 1 2 cbr 500 ------- 4 0.0 2.0 26 26
+ 0.345 0 1 cbr 500 ------- 4 0.0 2.0 29 29
- 0.345 0 1 cbr 500 ------- 4 0.0 2.0 29 29
r 0.345455 1 2 cbr 500 ------- 4 0.0 2.0 24 24
r 0.346818 0 1 cbr 500 ------- 4 0.0 2.0 27 27
+ 0.346818 1 2 cbr 500 ------- 4 0.0 2.0 27 27
- 0.346818 1 2 cbr 500 ------- 4 0.0 2.0 27 27
+ 0.35 0 1 cbr 500 ------- 4 0.0 2.0 30 30
- 0.35 0 1 cbr 500 ------- 4 0.0 2.0 30 30
r 0.350455 1 2 cbr 500 ------- 4 0.0 2.0 25 25
r 0.351818 0 1 cbr 500 ------- 4 0.0 2.0 28 28
+ 0.351818 1 2 cbr 500 ------- 4 0.0 2.0 28 28
- 0.351818 1 2 cbr 500 ------- 4 0.0 2.0 28 28
+ 0.355 0 1 cbr 500 ------- 4 0.0 2.0 31 31
- 0.355 0 1 cbr 500 ------- 4 0.0 2.0 31 31
r 0.355455 1 2 cbr 500 ------- 4 0.0 2.0 26 26
r 0.356818 0 1 cbr 500 ------- 4 0.0 2.0 29 29
+ 0.356818 1 2 cbr 500 ------- 4 0.0 2.0 29 29
- 0.356818 1 2 cbr 500 ------- 4 0.0 2.0 29 29
+ 0.36 0 1 cbr 500 ------- 4 0.0 2.0 32 32
- 0.36 0 1 cbr 500 ------- 4 0.0 2.0 32 32
r 0.360455 1 2 cbr 500 ------- 4 0.0 2.0 27 27
r 0.361818 0 1 cbr 500 ------- 4 0.0 2.0 30 30
+ 0.361818 1 2 cbr 500 ------- 4 0.0 2.0 30 30
- 0.361818 1 2 cbr 500 ------- 4 0.0 2.0 30 30
+ 0.365 0 1 cbr 500 ------- 4 0.0 2.0 33 33
- 0.365 0 1 cbr 500 ------- 4 0.0 2.0 33 33
r 0.365455 1 2 cbr 500 ------- 4 0.0 2.0 28 28
r 0.366818 0 1 cbr 500 ------- 4 0.0 2.0 31 31
+ 0.366818 1 2 cbr 500 ------- 4 0.0 2.0 31 31
- 0.366818 1 2 cbr 500 ------- 4 0.0 2.0 31 31
+ 0.37 0 1 cbr 500 ------- 4 0.0 2.0 34 34
- 0.37 0 1 cbr 500 ------- 4 0.0 2.0 34 34
r 0.370455 1 2 cbr 500 ------- 4 0.0 2.0 29 29
r 0.371818 0 1 cbr 500 ------- 4 0.0 2.0 32 32
+ 0.371818 1 2 cbr 500 ------- 4 0.0 2.0 32 32
- 0.371818 1 2 cbr 500 ------- 4 0.0 2.0 32 32
+ 0.375 0 1 cbr 500 ------- 4 0.0 2.0 35 35
- 0.375 0 1 cbr 500 ------- 4 0.0 2.0 35 35
r 0.375455 1 2 cbr 500 ------- 4 0.0 2.0 30 30
r 0.376818 0 1 cbr 500 ------- 4 0.0 2.0 33 33
+ 0.376818 1 2 cbr 500 ------- 4 0.0 2.0 33 33
- 0.376818 1 2 cbr 500 ------- 4 0.0 2.0 33 33
+ 0.38 0 1 cbr 500 ------- 4 0.0 2.0 36 36
- 0.38 0 1 cbr 500 ------- 4 0.0 2.0 36 36
r 0.380455 1 2 cbr 500 ------- 4 0.0 2.0 31 31
r 0.381818 0 1 cbr 500 ------- 4 0.0 2.0 34 34
+ 0.381818 1 2 cbr 500 ------- 4 0.0 2.0 34 34
- 0.381818 1 2 cbr 500 ------- 4 0.0 2.0 34 34
+ 0.385 0 1 cbr 500 ------- 4 0.0 2.0 37 37
- 0.385 0 1 cbr 500 ------- 4 0.0 2.0 37 37
r 0.385455 1 2 cbr 500 ------- 4 0.0 2.0 32 32
r 0.386818 0 1 cbr 500 ------- 4 0.0 2.0 35 35
+ 0.386818 1 2 cbr 500 ------- 4 0.0 2.0 35 35
- 0.386818 1 2 cbr 500 ------- 4 0.0 2.0 35 35
+ 0.39 0 1 cbr 500 ------- 4 0.0 2.0 38 38
- 0.39 0 1 cbr 500 ------- 4 0.0 2.0 38 38
r 0.390455 1 2 cbr 500 ------- 4 0.0 2.0 33 33
r 0.391818 0 1 cbr 500 ------- 4 0.0 2.0 36 36
+ 0.391818 1 2 cbr 500 ------- 4 0.0 2.0 36 36
- 0.391818 1 2 cbr 500 ------- 4 0.0 2.0 36 36
+ 0.395 0 1 cbr 500 ------- 4 0.0 2.0 39 39
- 0.395 0 1 cbr 500 ------- 4 0.0 2.0 39 39
r 0.395455 1 2 cbr 500 ------- 4 0.0 2.0 34 34
r 0.396818 0 1 cbr 500 ------- 4 0.0 2.0 37 37
+ 0.396818 1 2 cbr 500 ------- 4 0.0 2.0 37 37
- 0.396818 1 2 cbr 500 ------- 4 0.0 2.0 37 37
+ 0.4 0 1 cbr 500 ------- 4 0.0 2.0 40 40
- 0.4 0 1 cbr 500 ------- 4 0.0 2.0 40 40
r 0.400455 1 2 cbr 500 ------- 4 0.0 2.0 35 35
r 0.401818 0 1 cbr 500 ------- 4 0.0 2.0 38 38
+ 0.401818 1 2 cbr 500 ------- 4 0.0 2.0 38 38
- 0.401818 1 2 cbr 500 ------- 4 0.0 2.0 38 38
+ 0.405 0 1 cbr 500 ------- 4 0.0 2.0 41 41
- 0.405 0 1 cbr 500 ------- 4 0.0 2.0 41 41
r 0.405455 1 2 cbr 500 ------- 4 0.0 2.0 36 36
r 0.406818 0 1 cbr 500 ------- 4 0.0 2.0 39 39
+ 0.406818 1 2 cbr 500 ------- 4 0.0 2.0 39 39
- 0.406818 1 2 cbr 500 ------- 4 0.0 2.0 39 39
+ 0.41 0 1 cbr 500 ------- 4 0.0 2.0 42 42
- 0.41 0 1 cbr 500 ------- 4 0.0 2.0 42 42
r 0.410455 1 2 cbr 500 ------- 4 0.0 2.0 37 37
r 0.411818 0 1 cbr 500 ------- 4 0.0 2.0 40 40
+ 0.411818 1 2 cbr 500 ------- 4 0.0 2.0 40 40
- 0.411818 1 2 cbr 500 ------- 4 0.0 2.0 40 40
+ 0.415 0 1 cbr 500 ------- 4 0.0 2.0 43 43
- 0.415 0 1 cbr 500 ------- 4 0.0 2.0 43 43
r 0.415455 1 2 cbr 500 ------- 4 0.0 2.0 38 38
r 0.416818 0 1 cbr 500 ------- 4 0.0 2.0 41 41
+ 0.416818 1 2 cbr 500 ------- 4 0.0 2.0 41 41
- 0.416818 1 2 cbr 500 ------- 4 0.0 2.0 41 41
+ 0.42 0 1 cbr 500 ------- 4 0.0 2.0 44 44
- 0.42 0 1 cbr 500 ------- 4 0.0 2.0 44 44
r 0.420455 1 2 cbr 500 ------- 4 0.0 2.0 39 39
r 0.421818 0 1 cbr 500 ------- 4 0.0 2.0 42 42
+ 0.421818 1 2 cbr 500 ------- 4 0.0 2.0 42 42
- 0.421818 1 2 cbr 500 ------- 4 0.0 2.0 42 42
+ 0.425 0 1 cbr 500 ------- 4 0.0 2.0 45 45
- 0.425 0 1 cbr 500 ------- 4 0.0 2.0 45 45
r 0.425455 1 2 cbr 500 ------- 4 0.0 2.0 40 40
r 0.426818 0 1 cbr 500 ------- 4 0.0 2.0 43 43
+ 0.426818 1 2 cbr 500 ------- 4 0.0 2.0 43 43
- 0.426818 1 2 cbr 500 ------- 4 0.0 2.0 43 43
+ 0.43 0 1 cbr 500 ------- 4 0.0 2.0 46 46
- 0.43 0 1 cbr 500 ------- 4 0.0 2.0 46 46
r 0.430455 1 2 cbr 500 ------- 4 0.0 2.0 41 41
r 0.431818 0 1 cbr 500 ------- 4 0.0 2.0 44 44
+ 0.431818 1 2 cbr 500 ------- 4 0.0 2.0 44 44
- 0.431818 1 2 cbr 500 ------- 4 0.0 2.0 44 44
+ 0.435 0 1 cbr 500 ------- 4 0.0 2.0 47 47
- 0.435 0 1 cbr 500 ------- 4 0.0 2.0 47 47
r 0.435455 1 2 cbr 500 ------- 4 0.0 2.0 42 42
r 0.436818 0 1 cbr 500 ------- 4 0.0 2.0 45 45
+ 0.436818 1 2 cbr 500 ------- 4 0.0 2.0 45 45
- 0.436818 1 2 cbr 500 ------- 4 0.0 2.0 45 45
+ 0.44 0 1 cbr 500 ------- 4 0.0 2.0 48 48
- 0.44 0 1 cbr 500 ------- 4 0.0 2.0 48 48
r 0.440455 1 2 cbr 500 ------- 4 0.0 2.0 43 43
r 0.441818 0 1 cbr 500 ------- 4 0.0 2.0 46 46
+ 0.441818 1 2 cbr 500 ------- 4 0.0 2.0 46 46
- 0.441818 1 2 cbr 500 ------- 4 0.0 2.0 46 46
+ 0.445 0 1 cbr 500 ------- 4 0.0 2.0 49 49
- 0.445 0 1 cbr 500 ------- 4 0.0 2.0 49 49
r 0.445455 1 2 cbr 500 ------- 4 0.0 2.0 44 44
r 0.446818 0 1 cbr 500 ------- 4 0.0 2.0 47 47
+ 0.446818 1 2 cbr 500 ------- 4 0.0 2.0 47 47
- 0.446818 1 2 cbr 500 ------- 4 0.0 2.0 47 47
+ 0.45 0 1 cbr 500 ------- 4 0.0 2.0 50 50
- 0.45 0 1 cbr 500 ------- 4 0.0 2.0 50 50
r 0.450455 1 2 cbr 500 ------- 4 0.0 2.0 45 45
r 0.451818 0 1 cbr 500 ------- 4 0.0 2.0 48 48
+ 0.451818 1 2 cbr 500 ------- 4 0.0 2.0 48 48
- 0.451818 1 2 cbr 500 ------- 4 0.0 2.0 48 48
+ 0.455 0 1 cbr 500 ------- 4 0.0 2.0 51 51
- 0.455 0 1 cbr 500 ------- 4 0.0 2.0 51 51
r 0.455455 1 2 cbr 500 ------- 4 0.0 2.0 46 46
r 0.456818 0 1 cbr 500 ------- 4 0.0 2.0 49 49
+ 0.456818 1 2 cbr 500 ------- 4 0.0 2.0 49 49
- 0.456818 1 2 cbr 500 ------- 4 0.0 2.0 49 49
+ 0.46 0 1 cbr 500 ------- 4 0.0 2.0 52 52
- 0.46 0 1 cbr 500 ------- 4 0.0 2.0 52 52
r 0.460455 1 2 cbr 500 ------- 4 0.0 2.0 47 47
r 0.461818 0 1 cbr 500 ------- 4 0.0 2.0 50 50
+ 0.461818 1 2 cbr 500 ------- 4 0.0 2.0 50 50
- 0.461818 1 2 cbr 500 ------- 4 0.0 2.0 50 50
+ 0.465 0 1 cbr 500 ------- 4 0.0 2.0 53 53
- 0.465 0 1 cbr 500 ------- 4 0.0 2.0 53 53
r 0.465455 1 2 cbr 500 ------- 4 0.0 2.0 48 48
r 0.466818 0 1 cbr 500 ------- 4 0.0 2.0 51 51
+ 0.466818 1 2 cbr 500 ------- 4 0.0 2.0 51 51
- 0.466818 1 2 cbr 500 ------- 4 0.0 2.0 51 51
+ 0.47 0 1 cbr 500 ------- 4 0.0 2.0 54 54
- 0.47 0 1 cbr 500 ------- 4 0.0 2.0 54 54
r 0.470455 1 2 cbr 500 ------- 4 0.0 2.0 49 49
r 0.471818 0 1 cbr 500 ------- 4 0.0 2.0 52 52
+ 0.471818 1 2 cbr 500 ------- 4 0.0 2.0 52 52
- 0.471818 1 2 cbr 500 ------- 4 0.0 2.0 52 52
+ 0.475 0 1 cbr 500 ------- 4 0.0 2.0 55 55
- 0.475 0 1 cbr 500 ------- 4 0.0 2.0 55 55
r 0.475455 1 2 cbr 500 ------- 4 0.0 2.0 50 50
r 0.476818 0 1 cbr 500 ------- 4 0.0 2.0 53 53
+ 0.476818 1 2 cbr 500 ------- 4 0.0 2.0 53 53
- 0.476818 1 2 cbr 500 ------- 4 0.0 2.0 53 53
+ 0.48 0 1 cbr 500 ------- 4 0.0 2.0 56 56
- 0.48 0 1 cbr 500 ------- 4 0.0 2.0 56 56
r 0.480455 1 2 cbr 500 ------- 4 0.0 2.0 51 51
r 0.481818 0 1 cbr 500 ------- 4 0.0 2.0 54 54
+ 0.481818 1 2 cbr 500 ------- 4 0.0 2.0 54 54
- 0.481818 1 2 cbr 500 ------- 4 0.0 2.0 54 54
+ 0.485 0 1 cbr 500 ------- 4 0.0 2.0 57 57
- 0.485 0 1 cbr 500 ------- 4 0.0 2.0 57 57
r 0.485455 1 2 cbr 500 ------- 4 0.0 2.0 52 52
r 0.486818 0 1 cbr 500 ------- 4 0.0 2.0 55 55
+ 0.486818 1 2 cbr 500 ------- 4 0.0 2.0 55 55
- 0.486818 1 2 cbr 500 ------- 4 0.0 2.0 55 55
+ 0.49 0 1 cbr 500 ------- 4 0.0 2.0 58 58
- 0.49 0 1 cbr 500 ------- 4 0.0 2.0 58 58
r 0.490455 1 2 cbr 500 ------- 4 0.0 2.0 53 53
r 0.491818 0 1 cbr 500 ------- 4 0.0 2.0 56 56
+ 0.491818 1 2 cbr 500 ------- 4 0.0 2.0 56 56
- 0.491818 1 2 cbr 500 ------- 4 0.0 2.0 56 56
+ 0.495 0 1 cbr 500 ------- 4 0.0 2.0 59 59
- 0.495 0 1 cbr 500 ------- 4 0.0 2.0 59 59
r 0.495455 1 2 cbr 500 ------- 4 0.0 2.0 54 54
r 0.496818 0 1 cbr 500 ------- 4 0.0 2.0 57 57
+ 0.496818 1 2 cbr 500 ------- 4 0.0 2.0 57 57
- 0.496818 1 2 cbr 500 ------- 4 0.0 2.0 57 57
+ 0.5 1 2 cbr 500 ------- 4 1.0 2.0 0 60
+ 0.5 0 1 cbr 500 ------- 4 0.0 2.0 60 61
- 0.5 0 1 cbr 500 ------- 4 0.0 2.0 60 61
r 0.500455 1 2 cbr 500 ------- 4 0.0 2.0 55 55
- 0.500455 1 2 cbr 500 ------- 4 1.0 2.0 0 60
r 0.501818 0 1 cbr 500 ------- 4 0.0 2.0 58 58
+ 0.501818 1 2 cbr 500 ------- 4 0.0 2.0 58 58
- 0.504091 1 2 cbr 500 ------- 4 0.0 2.0 58 58
+ 0.505 1 2 cbr 500 ------- 4 1.0 2.0 1 62
+ 0.505 0 1 cbr 500 ------- 4 0.0 2.0 61 63
- 0.505 0 1 cbr 500 ------- 4 0.0 2.0 61 63
r 0.505455 1 2 cbr 500 ------- 4 0.0 2.0 56 56
r 0.506818 0 1 cbr 500 ------- 4 0.0 2.0 59 59
+ 0.506818 1 2 cbr 500 ------- 4 0.0 2.0 59 59
- 0.507727 1 2 cbr 500 ------- 4 1.0 2.0 1 62
+ 0.51 1 2 cbr 500 ------- 4 1.0 2.0 2 64
+ 0.51 0 1 cbr 500 ------- 4 0.0 2.0 62 65
- 0.51 0 1 cbr 500 ------- 4 0.0 2.0 62 65
r 0.510455 1 2 cbr 500 ------- 4 0.0 2.0 57 57
- 0.511364 1 2 cbr 500 ------- 4 0.0 2.0 59 59
r 0.511818 0 1 cbr 500 ------- 4 0.0 2.0 60 61
+ 0.511818 1 2 cbr 500 ------- 4 0.0 2.0 60 61
r 0.514091 1 2 cbr 500 ------- 4 1.0 2.0 0 60
+ 0.515 1 2 cbr 500 ------- 4 1.0 2.0 3 66
+ 0.515 0 1 cbr 500 ------- 4 0.0 2.0 63 67
- 0.515 0 1 cbr 500 ------- 4 0.0 2.0 63 67
- 0.515 1 2 cbr 500 ------- 4 1.0 2.0 2 64
r 0.516818 0 1 cbr 500 ------- 4 0.0 2.0 61 63
+ 0.516818 1 2 cbr 500 ------- 4 0.0 2.0 61 63
r 0.517727 1 2 cbr 500 ------- 4 0.0 2.0 58 58
- 0.518636 1 2 cbr 500 ------- 4 0.0 2.0 60 61
+ 0.52 1 2 cbr 500 ------- 4 1.0 2.0 4 68
+ 0.52 0 1 cbr 500 ------- 4 0.0 2.0 64 69
- 0.52 0 1 cbr 500 ------- 4 0.0 2.0 64 69
r 0.521364 1 2 cbr 500 ------- 4 1.0 2.0 1 62
r 0.521818 0 1 cbr 500 ------- 4 0.0 2.0 62 65
+ 0.521818 1 2 cbr 500 ------- 4 0.0 2.0 62 65
- 0.522273 1 2 cbr 500 ------- 4 1.0 2.0 3 66
+ 0.525 1 2 cbr 500 ------- 4 1.0 2.0 5 70
+ 0.525 0 1 cbr 500 ------- 4 0.0 2.0 65 71
- 0.525 0 1 cbr 500 ------- 4 0.0 2.0 65 71
r 0.525 1 2 cbr 500 ------- 4 0.0 2.0 59 59
- 0.525909 1 2 cbr 500 ------- 4 0.0 2.0 61 63
r 0.526818 0 1 cbr 500 ------- 4 0.0 2.0 63 67
+ 0.526818 1 2 cbr 500 ------- 4 0.0 2.0 63 67
r 0.528636 1 2 cbr 500 ------- 4 1.0 2.0 2 64
- 0.529545 1 2 cbr 500 ------- 4 1.0 2.0 4 68
+ 0.53 1 2 cbr 500 ------- 4 1.0 2.0 6 72
+ 0.53 0 1 cbr 500 ------- 4 0.0 2.0 66 73
- 0.53 0 1 cbr 500 ------- 4 0.0 2.0 66 73
r 0.531818 0 1 cbr 500 ------- 4 0.0 2.0 64 69
+ 0.531818 1 2 cbr 500 ------- 4 0.0 2.0 64 69
r 0.532273 1 2 cbr 500 ------- 4 0.0 2.0 60 61
- 0.533182 1 2 cbr 500 ------- 4 0.0 2.0 62 65
+ 0.535 1 2 cbr 500 ------- 4 1.0 2.0 7 74
+ 0.535 0 1 cbr 500 ------- 4 0.0 2.0 67 75
- 0.535 0 1 cbr 500 ------- 4 0.0 2.0 67 75
r 0.535909 1 2 cbr 500 ------- 4 1.0 2.0 3 66
r 0.536818 0 1 cbr 500 ------- 4 0.0 2.0 65 71
+ 0.536818 1 2 cbr 500 ------- 4 0.0 2.0 65 71
- 0.536818 1 2 cbr 500 ------- 4 1.0 2.0 5 70
r 0.539545 1 2 cbr 500 ------- 4 0.0 2.0 61 63
+ 0.54 1 2 cbr 500 ------- 4 1.0 2.0 8 76
+ 0.54 0 1 cbr 500 ------- 4 0.0 2.0 68 77
- 0.54 0 1 cbr 500 ------- 4 0.0 2.0 68 77
- 0.540455 1 2 cbr 500 ------- 4 0.0 2.0 63 67
r 0.541818 0 1 cbr 500 ------- 4 0.0 2.0 66 73
+ 0.541818 1 2 cbr 500 ------- 4 0.0 2.0 66 73
r 0.543182 1 2 cbr 500 ------- 4 1.0 2.0 4 68
- 0.544091 1 2 cbr 500 ------- 4 1.0 2.0 6 72
+ 0.545 1 2 cbr 500 ------- 4 1.0 2.0 9 78
+ 0.545 0 1 cbr 500 ------- 4 0.0 2.0 69 79
- 0.545 0 1 cbr 500 ------- 4 0.0 2.0 69 79
r 0.546818 0 1 cbr 500 ------- 4 0.0 2.0 67 75
+ 0.546818 1 2 cbr 500 ------- 4 0.0 2.0 67 75
r 0.546818 1 2 cbr 500 ------- 4 0.0 2.0 62 65
- 0.547727 1 2 cbr 500 ------- 4 0.0 2.0 64 69
+ 0.55 1 2 cbr 500 ------- 4 1.0 2.0 10 80
+ 0.55 0 1 cbr 500 ------- 4 0.0 2.0 70 81
- 0.55 0 1 cbr 500 ------- 4 0.0 2.0 70 81
r 0.550455 1 2 cbr 500 ------- 4 1.0 2.0 5 70
- 0.551364 1 2 cbr 500 ------- 4 1.0 2.0 7 74
r 0.551818 0 1 cbr 500 ------- 4 0.0 2.0 68 77
+ 0.551818 1 2 cbr 500 ------- 4 0.0 2.0 68 77
r 0.554091 1 2 cbr 500 ------- 4 0.0 2.0 63 67
+ 0.555 1 2 cbr 500 ------- 4 1.0 2.0 11 82
+ 0.555 0 1 cbr 500 ------- 4 0.0 2.0 71 83
- 0.555 0 1 cbr 500 ------- 4 0.0 2.0 71 83
- 0.555 1 2 cbr 500 ------- 4 0.0 2.0 65 71
r 0.556818 0 1 cbr 500 ------- 4 0.0 2.0 69 79
+ 0.556818 1 2 cbr 500 ------- 4 0.0 2.0 69 79
r 0.557727 1 2 cbr 500 ------- 4 1.0 2.0 6 72
- 0.558636 1 2 cbr 500 ------- 4 1.0 2.0 8 76
+ 0.56 1 2 cbr 500 ------- 4 1.0 2.0 12 84
+ 0.56 0 1 cbr 500 ------- 4 0.0 2.0 72 85
- 0.56 0 1 cbr 500 ------- 4 0.0 2.0 72 85
r 0.561364 1 2 cbr 500 ------- 4 0.0 2.0 64 69
r 0.561818 0 1 cbr 500 ------- 4 0.0 2.0 70 81
+ 0.561818 1 2 cbr 500 ------- 4 0.0 2.0 70 81
- 0.562273 1 2 cbr 500 ------- 4 0.0 2.0 66 73
+ 0.565 1 2 cbr 500 ------- 4 1.0 2.0 13 86
+ 0.565 0 1 cbr 500 ------- 4 0.0 2.0 73 87
- 0.565 0 1 cbr 500 ------- 4 0.0 2.0 73 87
r 0.565 1 2 cbr 500 ------- 4 1.0 2.0 7 74
- 0.565909 1 2 cbr 500 ------- 4 1.0 2.0 9 78
r 0.566818 0 1 cbr 500 ------- 4 0.0 2.0 71 83
+ 0.566818 1 2 cbr 500 ------- 4 0.0 2.0 71 83
r 0.568636 1 2 cbr 500 ------- 4 0.0 2.0 65 71
- 0.569545 1 2 cbr 500 ------- 4 0.0 2.0 67 75
+ 0.57 1 2 cbr 500 ------- 4 1.0 2.0 14 88
+ 0.57 0 1 cbr 500 ------- 4 0.0 2.0 74 89
- 0.57 0 1 cbr 500 ------- 4 0.0 2.0 74 89
r 0.571818 0 1 cbr 500 ------- 4 0.0 2.0 72 85
+ 0.571818 1 2 cbr 500 ------- 4 0.0 2.0 72 85
d 0.571818 1 2 cbr 500 ------- 4 0.0 2.0 72 85
r 0.572273 1 2 cbr 500 ------- 4 1.0 2.0 8 76
- 0.573182 1 2 cbr 500 ------- 4 1.0 2.0 10 80
+ 0.575 1 2 cbr 500 ------- 4 1.0 2.0 15 90
+ 0.575 0 1 cbr 500 ------- 4 0.0 2.0 75 91
- 0.575 0 1 cbr 500 ------- 4 0.0 2.0 75 91
r 0.575909 1 2 cbr 500 ------- 4 0.0 2.0 66 73
r 0.576818 0 1 cbr 500 ------- 4 0.0 2.0 73 87
+ 0.576818 1 2 cbr 500 ------- 4 0.0 2.0 73 87
d 0.576818 1 2 cbr 500 ------- 4 0.0 2.0 73 87
- 0.576818 1 2 cbr 500 ------- 4 0.0 2.0 68 77
r 0.579545 1 2 cbr 500 ------- 4 1.0 2.0 9 78
+ 0.58 1 2 cbr 500 ------- 4 1.0 2.0 16 92
+ 0.58 0 1 cbr 500 ------- 4 0.0 2.0 76 93
- 0.58 0 1 cbr 500 ------- 4 0.0 2.0 76 93
- 0.580455 1 2 cbr 500 ------- 4 1.0 2.0 11 82
r 0.581818 0 1 cbr 500 ------- 4 0.0 2.0 74 89
+ 0.581818 1 2 cbr 500 ------- 4 0.0 2.0 74 89
r 0.583182 1 2 cbr 500 ------- 4 0.0 2.0 67 75
- 0.584091 1 2 cbr 500 ------- 4 0.0 2.0 69 79
+ 0.585 1 2 cbr 500 ------- 4 1.0 2.0 17 94
+ 0.585 0 1 cbr 500 ------- 4 0.0 2.0 77 95
- 0.585 0 1 cbr 500 ------- 4 0.0 2.0 77 95
r 0.586818 0 1 cbr 500 ------- 4 0.0 2.0 75 91
+ 0.586818 1 2 cbr 500 ------- 4 0.0 2.0 75 91
d 0.586818 1 2 cbr 500 ------- 4 0.0 2.0 75 91
r 0.586818 1 2 cbr 500 ------- 4 1.0 2.0 10 80
- 0.587727 1 2 cbr 500 ------- 4 1.0 2.0 12 84
+ 0.59 1 2 cbr 500 ------- 4 1.0 2.0 18 96
+ 0.59 0 1 cbr 500 ------- 4 0.0 2.0 78 97
- 0.59 0 1 cbr 500 ------- 4 0.0 2.0 78 97
r 0.590455 1 2 cbr 500 ------- 4 0.0 2.0 68 77
- 0.591364 1 2 cbr 500 ------- 4 0.0 2.0 70 81
r 0.591818 0 1 cbr 500 ------- 4 0.0 2.0 76 93
+ 0.591818 1 2 cbr 500 ------- 4 0.0 2.0 76 93
r 0.594091 1 2 cbr 500 ------- 4 1.0 2.0 11 82
+ 0.595 1 2 cbr 500 ------- 4 1.0 2.0 19 98
d 0.595 1 2 cbr 500 ------- 4 1.0 2.0 19 98
+ 0.595 0 1 cbr 500 ------- 4 0.0 2.0 79 99
- 0.595 0 1 cbr 500 ------- 4 0.0 2.0 79 99
- 0.595 1 2 cbr 500 ------- 4 1.0 2.0 13 86
r 0.596818 0 1 cbr 500 ------- 4 0.0 2.0 77 95
+ 0.596818 1 2 cbr 500 ------- 4 0.0 2.0 77 95
r 0.597727 1 2 cbr 500 ------- 4 0.0 2.0 69 79
- 0.598636 1 2 cbr 500 ------- 4 0.0 2.0 71 83
+ 0.6 1 2 cbr 500 ------- 4 1.0 2.0 20 100
+ 0.6 0 1 cbr 500 ------- 4 0.0 2.0 80 101
- 0.6 0 1 cbr 500 ------- 4 0.0 2.0 80 101
r 0.601364 1 2 cbr 500 ------- 4 1.0 2.0 12 84
r 0.601818 0 1 cbr 500 ------- 4 0.0 2.0 78 97
+ 0.601818 1 2 cbr 500 ------- 4 0.0 2.0 78 97
d 0.601818 1 2 cbr 500 ------- 4 0.0 2.0 78 97
- 0.602273 1 2 cbr 500 ------- 4 1.0 2.0 14 88
+ 0.605 1 2 cbr 500 ------- 4 1.0 2.0 21 102
+ 0.605 0 1 cbr 500 ------- 4 0.0 2.0 81 103
- 0.605 0 1 cbr 500 ------- 4 0.0 2.0 81 103
r 0.605 1 2 cbr 500 ------- 4 0.0 2.0 70 81
- 0.605909 1 2 cbr 500 ------- 4 1.0 2.0 15 90
r 0.606818 0 1 cbr 500 ------- 4 0.0 2.0 79 99
+ 0.606818 1 2 cbr 500 ------- 4 0.0 2.0 79 99
r 0.608636 1 2 cbr 500 ------- 4 1.0 2.0 13 86
- 0.609545 1 2 cbr 500 ------- 4 1.0 2.0 16 92
+ 0.61 1 2 cbr 500 ------- 4 1.0 2.0 22 104
+ 0.61 0 1 cbr 500 ------- 4 0.0 2.0 82 105
- 0.61 0 1 cbr 500 ------- 4 0.0 2.0 82 105
r 0.611818 0 1 cbr 500 ------- 4 0.0 2.0 80 101
+ 0.611818 1 2 cbr 500 ------- 4 0.0 2.0 80 101
d 0.611818 1 2 cbr 500 ------- 4 0.0 2.0 80 101
r 0.612273 1 2 cbr 500 ------- 4 0.0 2.0 71 83
- 0.613182 1 2 cbr 500 ------- 4 0.0 2.0 74 89
+ 0.615 1 2 cbr 500 ------- 4 1.0 2.0 23 106
+ 0.615 0 1 cbr 500 ------- 4 0.0 2.0 83 107
- 0.615 0 1 cbr 500 ------- 4 0.0 2.0 83 107
r 0.615909 1 2 cbr 500 ------- 4 1.0 2.0 14 88
r 0.616818 0 1 cbr 500 ------- 4 0.0 2.0 81 103
+ 0.616818 1 2 cbr 500 ------- 4 0.0 2.0 81 103
d 0.616818 1 2 cbr 500 ------- 4 0.0 2.0 81 103
- 0.616818 1 2 cbr 500 ------- 4 1.0 2.0 17 94
r 0.619545 1 2 cbr 500 ------- 4 1.0 2.0 15 90
+ 0.62 1 2 cbr 500 ------- 4 1.0 2.0 24 108
+ 0.62 0 1 cbr 500 ------- 4 0.0 2.0 84 109
- 0.62 0 1 cbr 500 ------- 4 0.0 2.0 84 109
- 0.620455 1 2 cbr 500 ------- 4 1.0 2.0 18 96
r 0.621818 0 1 cbr 500 ------- 4 0.0 2.0 82 105
+ 0.621818 1 2 cbr 500 ------- 4 0.0 2.0 82 105
r 0.623182 1 2 cbr 500 ------- 4 1.0 2.0 16 92
- 0.624091 1 2 cbr 500 ------- 4 0.0 2.0 76 93
+ 0.625 1 2 cbr 500 ------- 4 1.0 2.0 25 110
+ 0.625 0 1 cbr 500 ------- 4 0.0 2.0 85 111
- 0.625 0 1 cbr 500 ------- 4 0.0 2.0 85 111
r 0.626818 0 1 cbr 500 ------- 4 0.0 2.0 83 107
+ 0.626818 1 2 cbr 500 ------- 4 0.0 2.0 83 107
d 0.626818 1 2 cbr 500 ------- 4 0.0 2.0 83 107
r 0.626818 1 2 cbr 500 ------- 4 0.0 2.0 74 89
- 0.627727 1 2 cbr 500 ------- 4 0.0 2.0 77 95
+ 0.63 1 2 cbr 500 ------- 4 1.0 2.0 26 112
+ 0.63 0 1 cbr 500 ------- 4 0.0 2.0 86 113
- 0.63 0 1 cbr 500 ------- 4 0.0 2.0 86 113
r 0.630455 1 2 cbr 500 ------- 4 1.0 2.0 17 94
- 0.631364 1 2 cbr 500 ------- 4 1.0 2.0 20 100
r 0.631818 0 1 cbr 500 ------- 4 0.0 2.0 84 109
+ 0.631818 1 2 cbr 500 ------- 4 0.0 2.0 84 109
r 0.634091 1 2 cbr 500 ------- 4 1.0 2.0 18 96
+ 0.635 1 2 cbr 500 ------- 4 1.0 2.0 27 114
d 0.635 1 2 cbr 500 ------- 4 1.0 2.0 27 114
+ 0.635 0 1 cbr 500 ------- 4 0.0 2.0 87 115
- 0.635 0 1 cbr 500 ------- 4 0.0 2.0 87 115
- 0.635 1 2 cbr 500 ------- 4 1.0 2.0 21 102
r 0.636818 0 1 cbr 500 ------- 4 0.0 2.0 85 111
+ 0.636818 1 2 cbr 500 ------- 4 0.0 2.0 85 111
r 0.637727 1 2 cbr 500 ------- 4 0.0 2.0 76 93
- 0.638636 1 2 cbr 500 ------- 4 0.0 2.0 79 99
+ 0.64 1 2 cbr 500 ------- 4 1.0 2.0 28 116
+ 0.64 0 1 cbr 500 ------- 4 0.0 2.0 88 117
- 0.64 0 1 cbr 500 ------- 4 0.0 2.0 88 117
r 0.641364 1 2 cbr 500 ------- 4 0.0 2.0 77 95
r 0.641818 0 1 cbr 500 ------- 4 0.0 2.0 86 113
+ 0.641818 1 2 cbr 500 ------- 4 0.0 2.0 86 113
d 0.641818 1 2 cbr 500 ------- 4 0.0 2.0 86 113
- 0.642273 1 2 cbr 500 ------- 4 1.0 2.0 22 104
+ 0.645 1 2 cbr 500 ------- 4 1.0 2.0 29 118
+ 0.645 0 1 cbr 500 ------- 4 0.0 2.0 89 119
- 0.645 0 1 cbr 500 ------- 4 0.0 2.0 89 119
r 0.645 1 2 cbr 500 ------- 4 1.0 2.0 20 100
- 0.645909 1 2 cbr 500 ------- 4 1.0 2.0 23 106
r 0.646818 0 1 cbr 500 ------- 4 0.0 2.0 87 115
+ 0.646818 1 2 cbr 500 ------- 4 0.0 2.0 87 115
r 0.648636 1 2 cbr 500 ------- 4 1.0 2.0 21 102
- 0.649545 1 2 cbr 500 ------- 4 1.0 2.0 24 108
+ 0.65 1 2 cbr 500 ------- 4 1.0 2.0 30 120
+ 0.65 0 1 cbr 500 ------- 4 0.0 2.0 90 121
- 0.65 0 1 cbr 500 ------- 4 0.0 2.0 90 121
r 0.651818 0 1 cbr 500 ------- 4 0.0 2.0 88 117
+ 0.651818 1 2 cbr 500 ------- 4 0.0 2.0 88 117
d 0.651818 1 2 cbr 500 ------- 4 0.0 2.0 88 117
r 0.652273 1 2 cbr 500 ------- 4 0.0 2.0 79 99
- 0.653182 1 2 cbr 500 ------- 4 0.0 2.0 82 105
+ 0.655 1 2 cbr 500 ------- 4 1.0 2.0 31 122
+ 0.655 0 1 cbr 500 ------- 4 0.0 2.0 91 123
- 0.655 0 1 cbr 500 ------- 4 0.0 2.0 91 123
r 0.655909 1 2 cbr 500 ------- 4 1.0 2.0 22 104
r 0.656818 0 1 cbr 500 ------- 4 0.0 2.0 89 119
+ 0.656818 1 2 cbr 500 ------- 4 0.0 2.0 89 119
d 0.656818 1 2 cbr 500 ------- 4 0.0 2.0 89 119
- 0.656818 1 2 cbr 500 ------- 4 1.0 2.0 25 110
r 0.659545 1 2 cbr 500 ------- 4 1.0 2.0 23 106
+ 0.66 1 2 cbr 500 ------- 4 1.0 2.0 32 124
+ 0.66 0 1 cbr 500 ------- 4 0.0 2.0 92 125
- 0.66 0 1 cbr 500 ------- 4 0.0 2.0 92 125
- 0.660455 1 2 cbr 500 ------- 4 1.0 2.0 26 112
r 0.661818 0 1 cbr 500 ------- 4 0.0 2.0 90 121
+ 0.661818 1 2 cbr 500 ------- 4 0.0 2.0 90 121
r 0.663182 1 2 cbr 500 ------- 4 1.0 2.0 24 108
- 0.664091 1 2 cbr 500 ------- 4 0.0 2.0 84 109
+ 0.665 1 2 cbr 500 ------- 4 1.0 2.0 33 126
+ 0.665 0 1 cbr 500 ------- 4 0.0 2.0 93 127
- 0.665 0 1 cbr 500 ------- 4 0.0 2.0 93 127
r 0.666818 0 1 cbr 500 ------- 4 0.0 2.0 91 123
+ 0.666818 1 2 cbr 500 ------- 4 0.0 2.0 91 123
d 0.666818 1 2 cbr 500 ------- 4 0.0 2.0 91 123
r 0.666818 1 2 cbr 500 ------- 4 0.0 2.0 82 105
- 0.667727 1 2 cbr 500 ------- 4 0.0 2.0 85 111
+ 0.67 1 2 cbr 500 ------- 4 1.0 2.0 34 128
+ 0.67 0 1 cbr 500 ------- 4 0.0 2.0 94 129
- 0.67 0 1 cbr 500 ------- 4 0.0 2.0 94 129
r 0.670455 1 2 cbr 500 ------- 4 1.0 2.0 25 110
- 0.671364 1 2 cbr 500 ------- 4 1.0 2.0 28 116
r 0.671818 0 1 cbr 500 ------- 4 0.0 2.0 92 125
+ 0.671818 1 2 cbr 500 ------- 4 0.0 2.0 92 125
r 0.674091 1 2 cbr 500 ------- 4 1.0 2.0 26 112
+ 0.675 1 2 cbr 500 ------- 4 1.0 2.0 35 130
d 0.675 1 2 cbr 500 ------- 4 1.0 2.0 35 130
+ 0.675 0 1 cbr 500 ------- 4 0.0 2.0 95 131
- 0.675 0 1 cbr 500 ------- 4 0.0 2.0 95 131
- 0.675 1 2 cbr 500 ------- 4 1.0 2.0 29 118
r 0.676818 0 1 cbr 500 ------- 4 0.0 2.0 93 127
+ 0.676818 1 2 cbr 500 ------- 4 0.0 2.0 93 127
r 0.677727 1 2 cbr 500 ------- 4 0.0 2.0 84 109
- 0.678636 1 2 cbr 500 ------- 4 0.0 2.0 87 115
+ 0.68 1 2 cbr 500 ------- 4 1.0 2.0 36 132
+ 0.68 0 1 cbr 500 ------- 4 0.0 2.0 96 133
- 0.68 0 1 cbr 500 ------- 4 0.0 2.0 96 133
r 0.681364 1 2 cbr 500 ------- 4 0.0 2.0 85 111
r 0.681818 0 1 cbr 500 ------- 4 0.0 2.0 94 129
+ 0.681818 1 2 cbr 500 ------- 4 0.0 2.0 94 129
d 0.681818 1 2 cbr 500 ------- 4 0.0 2.0 94 129
- 0.682273 1 2 cbr 500 ------- 4 1.0 2.0 30 120
+ 0.685 1 2 cbr 500 ------- 4 1.0 2.0 37 134
+ 0.685 0 1 cbr 500 ------- 4 0.0 2.0 97 135
- 0.685 0 1 cbr 500 ------- 4 0.0 2.0 97 135
r 0.685 1 2 cbr 500 ------- 4 1.0 2.0 28 116
- 0.685909 1 2 cbr 500 ------- 4 1.0 2.0 31 122
r 0.686818 0 1 cbr 500 ------- 4 0.0 2.0 95 131
+ 0.686818 1 2 cbr 500 ------- 4 0.0 2.0 95 131