+ 0.1 0 2 ping 64 ------- 0 0.0 4.0 -1 0
- 0.1 0 2 ping 64 ------- 0 0.0 4.0 -1 0
+ 0.1 5 3 ping 64 ------- 0 5.0 1.0 -1 1
- 0.1 5 3 ping 64 ------- 0 5.0 1.0 -1 1
r 0.110025 0 2 ping 64 ------- 0 0.0 4.0 -1 0
+ 0.110025 2 3 ping 64 ------- 0 0.0 4.0 -1 0
d 0.110025 2 3 ping 64 ------- 0 0.0 4.0 -1 0
r 0.110025 5 3 ping 64 ------- 0 5.0 1.0 -1 1
+ 0.110025 3 2 ping 64 ------- 0 5.0 1.0 -1 1
- 0.110025 3 2 ping 64 ------- 0 5.0 1.0 -1 1
r 0.120367 3 2 ping 64 ------- 0 5.0 1.0 -1 1
+ 0.120367 2 1 ping 64 ------- 0 5.0 1.0 -1 1
d 0.120367 2 1 ping 64 ------- 0 5.0 1.0 -1 1
